MODEL 1
REMARK VINA RESULT:    -8.095      0.000      0.000
REMARK INTER + INTRA:          -8.095
REMARK INTER:                  -8.095
REMARK INTRA:                   0.000
REMARK UNBOUND:                 0.000
REMARK  Name = fluoranthene
REMARK  0 active torsions:
REMARK  status: ('A' for Active; 'I' for Inactive)
REMARK                            x       y       z     vdW  Elec       q    Type
REMARK                         _______ _______ _______ _____ _____    ______ ____
ROOT
ATOM      1  C   UNL     1      74.210  72.186  54.900  0.00  0.00    +0.000 A 
ATOM      2  C   UNL     1      73.253  72.334  53.877  0.00  0.00    +0.000 A 
ATOM      3  C   UNL     1      71.894  72.109  54.122  0.00  0.00    +0.000 A 
ATOM      4  C   UNL     1      71.522  71.736  55.399  0.00  0.00    +0.000 A 
ATOM      5  C   UNL     1      72.490  71.585  56.433  0.00  0.00    +0.000 A 
ATOM      6  C   UNL     1      73.833  71.808  56.193  0.00  0.00    +0.000 A 
ATOM      7  C   UNL     1      71.771  71.189  57.637  0.00  0.00    +0.000 A 
ATOM      8  C   UNL     1      72.174  70.905  58.928  0.00  0.00    +0.000 A 
ATOM      9  C   UNL     1      71.196  70.545  59.873  0.00  0.00    +0.000 A 
ATOM     10  C   UNL     1      69.830  70.471  59.526  0.00  0.00    +0.000 A 
ATOM     11  C   UNL     1      69.412  70.759  58.211  0.00  0.00    +0.000 A 
ATOM     12  C   UNL     1      68.107  70.738  57.684  0.00  0.00    +0.000 A 
ATOM     13  C   UNL     1      67.879  71.060  56.328  0.00  0.00    +0.000 A 
ATOM     14  C   UNL     1      68.938  71.408  55.469  0.00  0.00    +0.000 A 
ATOM     15  C   UNL     1      70.223  71.430  55.982  0.00  0.00    +0.000 A 
ATOM     16  C   UNL     1      70.422  71.110  57.318  0.00  0.00    +0.000 A 
ENDROOT
TORSDOF 0
ENDMDL
MODEL 2
REMARK VINA RESULT:    -8.087      0.162      2.967
REMARK INTER + INTRA:          -8.087
REMARK INTER:                  -8.087
REMARK INTRA:                   0.000
REMARK UNBOUND:                 0.000
REMARK  Name = fluoranthene
REMARK  0 active torsions:
REMARK  status: ('A' for Active; 'I' for Inactive)
REMARK                            x       y       z     vdW  Elec       q    Type
REMARK                         _______ _______ _______ _____ _____    ______ ____
ROOT
ATOM      1  C   UNL     1      73.295  72.356  53.913  0.00  0.00    +0.000 A 
ATOM      2  C   UNL     1      74.209  72.177  54.970  0.00  0.00    +0.000 A 
ATOM      3  C   UNL     1      73.773  71.793  56.243  0.00  0.00    +0.000 A 
ATOM      4  C   UNL     1      72.418  71.595  56.428  0.00  0.00    +0.000 A 
ATOM      5  C   UNL     1      71.495  71.777  55.359  0.00  0.00    +0.000 A 
ATOM      6  C   UNL     1      71.924  72.157  54.101  0.00  0.00    +0.000 A 
ATOM      7  C   UNL     1      70.168  71.492  55.888  0.00  0.00    +0.000 A 
ATOM      8  C   UNL     1      68.904  71.502  55.327  0.00  0.00    +0.000 A 
ATOM      9  C   UNL     1      67.806  71.167  56.139  0.00  0.00    +0.000 A 
ATOM     10  C   UNL     1      67.974  70.826  57.499  0.00  0.00    +0.000 A 
ATOM     11  C   UNL     1      69.258  70.814  58.077  0.00  0.00    +0.000 A 
ATOM     12  C   UNL     1      69.617  70.504  59.402  0.00  0.00    +0.000 A 
ATOM     13  C   UNL     1      70.971  70.545  59.803  0.00  0.00    +0.000 A 
ATOM     14  C   UNL     1      71.993  70.895  58.902  0.00  0.00    +0.000 A 
ATOM     15  C   UNL     1      71.645  71.201  57.599  0.00  0.00    +0.000 A 
ATOM     16  C   UNL     1      70.309  71.154  57.227  0.00  0.00    +0.000 A 
ENDROOT
TORSDOF 0
ENDMDL
MODEL 3
REMARK VINA RESULT:    -7.690      1.478      3.883
REMARK INTER + INTRA:          -7.690
REMARK INTER:                  -7.690
REMARK INTRA:                   0.000
REMARK UNBOUND:                 0.000
REMARK  Name = fluoranthene
REMARK  0 active torsions:
REMARK  status: ('A' for Active; 'I' for Inactive)
REMARK                            x       y       z     vdW  Elec       q    Type
REMARK                         _______ _______ _______ _____ _____    ______ ____
ROOT
ATOM      1  C   UNL     1      73.808  72.909  59.897  0.00  0.00    +0.000 A 
ATOM      2  C   UNL     1      73.012  72.215  60.830  0.00  0.00    +0.000 A 
ATOM      3  C   UNL     1      71.791  71.645  60.453  0.00  0.00    +0.000 A 
ATOM      4  C   UNL     1      71.393  71.784  59.138  0.00  0.00    +0.000 A 
ATOM      5  C   UNL     1      72.197  72.485  58.195  0.00  0.00    +0.000 A 
ATOM      6  C   UNL     1      73.404  73.049  58.565  0.00  0.00    +0.000 A 
ATOM      7  C   UNL     1      71.494  72.446  56.920  0.00  0.00    +0.000 A 
ATOM      8  C   UNL     1      71.784  72.948  55.665  0.00  0.00    +0.000 A 
ATOM      9  C   UNL     1      70.865  72.725  54.624  0.00  0.00    +0.000 A 
ATOM     10  C   UNL     1      69.669  72.006  54.840  0.00  0.00    +0.000 A 
ATOM     11  C   UNL     1      69.368  71.492  56.117  0.00  0.00    +0.000 A 
ATOM     12  C   UNL     1      68.235  70.758  56.519  0.00  0.00    +0.000 A 
ATOM     13  C   UNL     1      68.106  70.321  57.856  0.00  0.00    +0.000 A 
ATOM     14  C   UNL     1      69.092  70.603  58.818  0.00  0.00    +0.000 A 
ATOM     15  C   UNL     1      70.206  71.323  58.428  0.00  0.00    +0.000 A 
ATOM     16  C   UNL     1      70.313  71.742  57.109  0.00  0.00    +0.000 A 
ENDROOT
TORSDOF 0
ENDMDL
MODEL 4
REMARK VINA RESULT:    -7.621      1.711      3.558
REMARK INTER + INTRA:          -7.621
REMARK INTER:                  -7.621
REMARK INTRA:                   0.000
REMARK UNBOUND:                 0.000
REMARK  Name = fluoranthene
REMARK  0 active torsions:
REMARK  status: ('A' for Active; 'I' for Inactive)
REMARK                            x       y       z     vdW  Elec       q    Type
REMARK                         _______ _______ _______ _____ _____    ______ ____
ROOT
ATOM      1  C   UNL     1      73.584  72.731  60.776  0.00  0.00    +0.000 A 
ATOM      2  C   UNL     1      74.248  73.358  59.703  0.00  0.00    +0.000 A 
ATOM      3  C   UNL     1      73.704  73.350  58.414  0.00  0.00    +0.000 A 
ATOM      4  C   UNL     1      72.495  72.708  58.229  0.00  0.00    +0.000 A 
ATOM      5  C   UNL     1      71.824  72.075  59.313  0.00  0.00    +0.000 A 
ATOM      6  C   UNL     1      72.360  72.081  60.588  0.00  0.00    +0.000 A 
ATOM      7  C   UNL     1      70.595  71.503  58.780  0.00  0.00    +0.000 A 
ATOM      8  C   UNL     1      69.561  70.783  59.351  0.00  0.00    +0.000 A 
ATOM      9  C   UNL     1      68.495  70.372  58.530  0.00  0.00    +0.000 A 
ATOM     10  C   UNL     1      68.468  70.678  57.152  0.00  0.00    +0.000 A 
ATOM     11  C   UNL     1      69.519  71.410  56.564  0.00  0.00    +0.000 A 
ATOM     12  C   UNL     1      69.663  71.805  55.220  0.00  0.00    +0.000 A 
ATOM     13  C   UNL     1      70.796  72.543  54.812  0.00  0.00    +0.000 A 
ATOM     14  C   UNL     1      71.806  72.902  55.723  0.00  0.00    +0.000 A 
ATOM     15  C   UNL     1      71.668  72.516  57.044  0.00  0.00    +0.000 A 
ATOM     16  C   UNL     1      70.547  71.792  57.424  0.00  0.00    +0.000 A 
ENDROOT
TORSDOF 0
ENDMDL
MODEL 5
REMARK VINA RESULT:    -7.553      1.257      4.487
REMARK INTER + INTRA:          -7.553
REMARK INTER:                  -7.553
REMARK INTRA:                   0.000
REMARK UNBOUND:                 0.000
REMARK  Name = fluoranthene
REMARK  0 active torsions:
REMARK  status: ('A' for Active; 'I' for Inactive)
REMARK                            x       y       z     vdW  Elec       q    Type
REMARK                         _______ _______ _______ _____ _____    ______ ____
ROOT
ATOM      1  C   UNL     1      68.122  71.196  55.243  0.00  0.00    +0.000 A 
ATOM      2  C   UNL     1      67.622  70.658  56.446  0.00  0.00    +0.000 A 
ATOM      3  C   UNL     1      68.389  70.672  57.615  0.00  0.00    +0.000 A 
ATOM      4  C   UNL     1      69.652  71.230  57.553  0.00  0.00    +0.000 A 
ATOM      5  C   UNL     1      70.156  71.774  56.337  0.00  0.00    +0.000 A 
ATOM      6  C   UNL     1      69.400  71.761  55.180  0.00  0.00    +0.000 A 
ATOM      7  C   UNL     1      71.496  72.273  56.616  0.00  0.00    +0.000 A 
ATOM      8  C   UNL     1      72.455  72.893  55.837  0.00  0.00    +0.000 A 
ATOM      9  C   UNL     1      73.676  73.255  56.435  0.00  0.00    +0.000 A 
ATOM     10  C   UNL     1      73.931  72.997  57.800  0.00  0.00    +0.000 A 
ATOM     11  C   UNL     1      72.958  72.365  58.599  0.00  0.00    +0.000 A 
ATOM     12  C   UNL     1      73.032  72.029  59.964  0.00  0.00    +0.000 A 
ATOM     13  C   UNL     1      71.945  71.392  60.603  0.00  0.00    +0.000 A 
ATOM     14  C   UNL     1      70.767  71.075  59.903  0.00  0.00    +0.000 A 
ATOM     15  C   UNL     1      70.689  71.403  58.561  0.00  0.00    +0.000 A 
ATOM     16  C   UNL     1      71.769  72.029  57.955  0.00  0.00    +0.000 A 
ENDROOT
TORSDOF 0
ENDMDL
MODEL 6
REMARK VINA RESULT:    -7.537      1.263      4.107
REMARK INTER + INTRA:          -7.537
REMARK INTER:                  -7.537
REMARK INTRA:                   0.000
REMARK UNBOUND:                 0.000
REMARK  Name = fluoranthene
REMARK  0 active torsions:
REMARK  status: ('A' for Active; 'I' for Inactive)
REMARK                            x       y       z     vdW  Elec       q    Type
REMARK                         _______ _______ _______ _____ _____    ______ ____
ROOT
ATOM      1  C   UNL     1      67.642  70.539  56.746  0.00  0.00    +0.000 A 
ATOM      2  C   UNL     1      68.033  71.020  55.481  0.00  0.00    +0.000 A 
ATOM      3  C   UNL     1      69.283  71.620  55.292  0.00  0.00    +0.000 A 
ATOM      4  C   UNL     1      70.120  71.725  56.386  0.00  0.00    +0.000 A 
ATOM      5  C   UNL     1      69.725  71.238  57.664  0.00  0.00    +0.000 A 
ATOM      6  C   UNL     1      68.490  70.645  57.853  0.00  0.00    +0.000 A 
ATOM      7  C   UNL     1      70.825  71.503  58.582  0.00  0.00    +0.000 A 
ATOM      8  C   UNL     1      71.013  71.258  59.929  0.00  0.00    +0.000 A 
ATOM      9  C   UNL     1      72.227  71.652  60.521  0.00  0.00    +0.000 A 
ATOM     10  C   UNL     1      73.241  72.284  59.769  0.00  0.00    +0.000 A 
ATOM     11  C   UNL     1      73.055  72.537  58.395  0.00  0.00    +0.000 A 
ATOM     12  C   UNL     1      73.944  73.151  57.492  0.00  0.00    +0.000 A 
ATOM     13  C   UNL     1      73.581  73.320  56.137  0.00  0.00    +0.000 A 
ATOM     14  C   UNL     1      72.335  72.886  55.652  0.00  0.00    +0.000 A 
ATOM     15  C   UNL     1      71.458  72.282  56.535  0.00  0.00    +0.000 A 
ATOM     16  C   UNL     1      71.835  72.126  57.862  0.00  0.00    +0.000 A 
ENDROOT
TORSDOF 0
ENDMDL
MODEL 7
REMARK VINA RESULT:    -6.777      2.470      5.538
REMARK INTER + INTRA:          -6.777
REMARK INTER:                  -6.777
REMARK INTRA:                   0.000
REMARK UNBOUND:                 0.000
REMARK  Name = fluoranthene
REMARK  0 active torsions:
REMARK  status: ('A' for Active; 'I' for Inactive)
REMARK                            x       y       z     vdW  Elec       q    Type
REMARK                         _______ _______ _______ _____ _____    ______ ____
ROOT
ATOM      1  C   UNL     1      69.507  71.034  57.422  0.00  0.00    +0.000 A 
ATOM      2  C   UNL     1      69.273  70.677  58.764  0.00  0.00    +0.000 A 
ATOM      3  C   UNL     1      70.169  71.043  59.775  0.00  0.00    +0.000 A 
ATOM      4  C   UNL     1      71.289  71.765  59.413  0.00  0.00    +0.000 A 
ATOM      5  C   UNL     1      71.526  72.126  58.056  0.00  0.00    +0.000 A 
ATOM      6  C   UNL     1      70.642  71.765  57.056  0.00  0.00    +0.000 A 
ATOM      7  C   UNL     1      72.777  72.871  58.023  0.00  0.00    +0.000 A 
ATOM      8  C   UNL     1      73.499  73.464  57.003  0.00  0.00    +0.000 A 
ATOM      9  C   UNL     1      74.699  74.122  57.325  0.00  0.00    +0.000 A 
ATOM     10  C   UNL     1      75.170  74.185  58.654  0.00  0.00    +0.000 A 
ATOM     11  C   UNL     1      74.440  73.583  59.698  0.00  0.00    +0.000 A 
ATOM     12  C   UNL     1      74.750  73.542  61.071  0.00  0.00    +0.000 A 
ATOM     13  C   UNL     1      73.888  72.885  61.978  0.00  0.00    +0.000 A 
ATOM     14  C   UNL     1      72.707  72.257  61.543  0.00  0.00    +0.000 A 
ATOM     15  C   UNL     1      72.399  72.294  60.195  0.00  0.00    +0.000 A 
ATOM     16  C   UNL     1      73.259  72.945  59.322  0.00  0.00    +0.000 A 
ENDROOT
TORSDOF 0
ENDMDL
MODEL 8
REMARK VINA RESULT:    -6.758      1.065      5.112
REMARK INTER + INTRA:          -6.758
REMARK INTER:                  -6.758
REMARK INTRA:                   0.000
REMARK UNBOUND:                 0.000
REMARK  Name = fluoranthene
REMARK  0 active torsions:
REMARK  status: ('A' for Active; 'I' for Inactive)
REMARK                            x       y       z     vdW  Elec       q    Type
REMARK                         _______ _______ _______ _____ _____    ______ ____
ROOT
ATOM      1  C   UNL     1      67.754  70.786  56.149  0.00  0.00    +0.000 A 
ATOM      2  C   UNL     1      67.980  70.677  57.535  0.00  0.00    +0.000 A 
ATOM      3  C   UNL     1      69.195  71.078  58.102  0.00  0.00    +0.000 A 
ATOM      4  C   UNL     1      70.164  71.585  57.259  0.00  0.00    +0.000 A 
ATOM      5  C   UNL     1      69.935  71.695  55.857  0.00  0.00    +0.000 A 
ATOM      6  C   UNL     1      68.736  71.299  55.295  0.00  0.00    +0.000 A 
ATOM      7  C   UNL     1      71.143  72.260  55.270  0.00  0.00    +0.000 A 
ATOM      8  C   UNL     1      71.501  72.588  53.976  0.00  0.00    +0.000 A 
ATOM      9  C   UNL     1      72.780  73.129  53.749  0.00  0.00    +0.000 A 
ATOM     10  C   UNL     1      73.688  73.339  54.809  0.00  0.00    +0.000 A 
ATOM     11  C   UNL     1      73.330  73.006  56.131  0.00  0.00    +0.000 A 
ATOM     12  C   UNL     1      74.095  73.142  57.304  0.00  0.00    +0.000 A 
ATOM     13  C   UNL     1      73.563  72.752  58.553  0.00  0.00    +0.000 A 
ATOM     14  C   UNL     1      72.265  72.220  58.663  0.00  0.00    +0.000 A 
ATOM     15  C   UNL     1      71.509  72.084  57.513  0.00  0.00    +0.000 A 
ATOM     16  C   UNL     1      72.052  72.475  56.297  0.00  0.00    +0.000 A 
ENDROOT
TORSDOF 0
ENDMDL
MODEL 9
REMARK VINA RESULT:    -6.579      1.165      4.407
REMARK INTER + INTRA:          -6.579
REMARK INTER:                  -6.579
REMARK INTRA:                   0.000
REMARK UNBOUND:                 0.000
REMARK  Name = fluoranthene
REMARK  0 active torsions:
REMARK  status: ('A' for Active; 'I' for Inactive)
REMARK                            x       y       z     vdW  Elec       q    Type
REMARK                         _______ _______ _______ _____ _____    ______ ____
ROOT
ATOM      1  C   UNL     1      68.538  70.666  58.377  0.00  0.00    +0.000 A 
ATOM      2  C   UNL     1      68.019  70.653  57.067  0.00  0.00    +0.000 A 
ATOM      3  C   UNL     1      68.768  71.139  55.989  0.00  0.00    +0.000 A 
ATOM      4  C   UNL     1      70.032  71.632  56.253  0.00  0.00    +0.000 A 
ATOM      5  C   UNL     1      70.556  71.645  57.576  0.00  0.00    +0.000 A 
ATOM      6  C   UNL     1      69.817  71.165  58.642  0.00  0.00    +0.000 A 
ATOM      7  C   UNL     1      71.892  72.221  57.502  0.00  0.00    +0.000 A 
ATOM      8  C   UNL     1      72.863  72.483  58.451  0.00  0.00    +0.000 A 
ATOM      9  C   UNL     1      74.074  73.060  58.030  0.00  0.00    +0.000 A 
ATOM     10  C   UNL     1      74.308  73.372  56.673  0.00  0.00    +0.000 A 
ATOM     11  C   UNL     1      73.322  73.109  55.701  0.00  0.00    +0.000 A 
ATOM     12  C   UNL     1      73.375  73.350  54.315  0.00  0.00    +0.000 A 
ATOM     13  C   UNL     1      72.278  73.016  53.490  0.00  0.00    +0.000 A 
ATOM     14  C   UNL     1      71.110  72.439  54.021  0.00  0.00    +0.000 A 
ATOM     15  C   UNL     1      71.053  72.200  55.383  0.00  0.00    +0.000 A 
ATOM     16  C   UNL     1      72.143  72.536  56.174  0.00  0.00    +0.000 A 
ENDROOT
TORSDOF 0
ENDMDL
