MODEL 1
REMARK VINA RESULT:    -7.448      0.000      0.000
REMARK INTER + INTRA:          -7.448
REMARK INTER:                  -7.448
REMARK INTRA:                   0.000
REMARK UNBOUND:                 0.000
REMARK  Name = phenanthrene
REMARK  0 active torsions:
REMARK  status: ('A' for Active; 'I' for Inactive)
REMARK                            x       y       z     vdW  Elec       q    Type
REMARK                         _______ _______ _______ _____ _____    ______ ____
ROOT
ATOM      1  C   UNL     1      68.616  71.410  55.229  0.00  0.00    +0.000 A 
ATOM      2  C   UNL     1      67.653  70.679  55.908  0.00  0.00    +0.000 A 
ATOM      3  C   UNL     1      67.851  70.361  57.249  0.00  0.00    +0.000 A 
ATOM      4  C   UNL     1      69.012  70.771  57.927  0.00  0.00    +0.000 A 
ATOM      5  C   UNL     1      69.176  70.433  59.273  0.00  0.00    +0.000 A 
ATOM      6  C   UNL     1      70.314  70.823  59.973  0.00  0.00    +0.000 A 
ATOM      7  C   UNL     1      71.321  71.562  59.349  0.00  0.00    +0.000 A 
ATOM      8  C   UNL     1      72.458  71.939  60.084  0.00  0.00    +0.000 A 
ATOM      9  C   UNL     1      73.484  72.675  59.496  0.00  0.00    +0.000 A 
ATOM     10  C   UNL     1      73.383  73.043  58.163  0.00  0.00    +0.000 A 
ATOM     11  C   UNL     1      72.258  72.672  57.422  0.00  0.00    +0.000 A 
ATOM     12  C   UNL     1      71.192  71.923  57.983  0.00  0.00    +0.000 A 
ATOM     13  C   UNL     1      70.015  71.520  57.258  0.00  0.00    +0.000 A 
ATOM     14  C   UNL     1      69.775  71.822  55.893  0.00  0.00    +0.000 A 
ENDROOT
TORSDOF 0
ENDMDL
MODEL 2
REMARK VINA RESULT:    -7.420      0.118      4.438
REMARK INTER + INTRA:          -7.420
REMARK INTER:                  -7.420
REMARK INTRA:                   0.000
REMARK UNBOUND:                 0.000
REMARK  Name = phenanthrene
REMARK  0 active torsions:
REMARK  status: ('A' for Active; 'I' for Inactive)
REMARK                            x       y       z     vdW  Elec       q    Type
REMARK                         _______ _______ _______ _____ _____    ______ ____
ROOT
ATOM      1  C   UNL     1      73.346  72.934  58.280  0.00  0.00    +0.000 A 
ATOM      2  C   UNL     1      73.418  72.534  59.605  0.00  0.00    +0.000 A 
ATOM      3  C   UNL     1      72.373  71.799  60.158  0.00  0.00    +0.000 A 
ATOM      4  C   UNL     1      71.245  71.454  59.394  0.00  0.00    +0.000 A 
ATOM      5  C   UNL     1      70.216  70.715  59.984  0.00  0.00    +0.000 A 
ATOM      6  C   UNL     1      69.086  70.358  59.255  0.00  0.00    +0.000 A 
ATOM      7  C   UNL     1      68.950  70.728  57.915  0.00  0.00    +0.000 A 
ATOM      8  C   UNL     1      67.796  70.351  57.207  0.00  0.00    +0.000 A 
ATOM      9  C   UNL     1      67.625  70.703  55.871  0.00  0.00    +0.000 A 
ATOM     10  C   UNL     1      68.609  71.436  55.226  0.00  0.00    +0.000 A 
ATOM     11  C   UNL     1      69.761  71.817  55.919  0.00  0.00    +0.000 A 
ATOM     12  C   UNL     1      69.973  71.479  57.281  0.00  0.00    +0.000 A 
ATOM     13  C   UNL     1      71.144  71.849  58.035  0.00  0.00    +0.000 A 
ATOM     14  C   UNL     1      72.228  72.597  57.510  0.00  0.00    +0.000 A 
ENDROOT
TORSDOF 0
ENDMDL
MODEL 3
REMARK VINA RESULT:    -7.065      0.747      2.545
REMARK INTER + INTRA:          -7.065
REMARK INTER:                  -7.065
REMARK INTRA:                   0.000
REMARK UNBOUND:                 0.000
REMARK  Name = phenanthrene
REMARK  0 active torsions:
REMARK  status: ('A' for Active; 'I' for Inactive)
REMARK                            x       y       z     vdW  Elec       q    Type
REMARK                         _______ _______ _______ _____ _____    ______ ____
ROOT
ATOM      1  C   UNL     1      68.020  70.508  57.519  0.00  0.00    +0.000 A 
ATOM      2  C   UNL     1      68.047  70.781  56.160  0.00  0.00    +0.000 A 
ATOM      3  C   UNL     1      69.151  71.428  55.612  0.00  0.00    +0.000 A 
ATOM      4  C   UNL     1      70.242  71.807  56.413  0.00  0.00    +0.000 A 
ATOM      5  C   UNL     1      71.332  72.454  55.826  0.00  0.00    +0.000 A 
ATOM      6  C   UNL     1      72.428  72.842  56.592  0.00  0.00    +0.000 A 
ATOM      7  C   UNL     1      72.465  72.596  57.967  0.00  0.00    +0.000 A 
ATOM      8  C   UNL     1      73.586  73.001  58.712  0.00  0.00    +0.000 A 
ATOM      9  C   UNL     1      73.659  72.774  60.083  0.00  0.00    +0.000 A 
ATOM     10  C   UNL     1      72.610  72.136  60.726  0.00  0.00    +0.000 A 
ATOM     11  C   UNL     1      71.490  71.729  59.997  0.00  0.00    +0.000 A 
ATOM     12  C   UNL     1      71.377  71.942  58.599  0.00  0.00    +0.000 A 
ATOM     13  C   UNL     1      70.242  71.540  57.807  0.00  0.00    +0.000 A 
ATOM     14  C   UNL     1      69.099  70.880  58.326  0.00  0.00    +0.000 A 
ENDROOT
TORSDOF 0
ENDMDL
MODEL 4
REMARK VINA RESULT:    -7.062      0.725      5.096
REMARK INTER + INTRA:          -7.062
REMARK INTER:                  -7.062
REMARK INTRA:                   0.000
REMARK UNBOUND:                 0.000
REMARK  Name = phenanthrene
REMARK  0 active torsions:
REMARK  status: ('A' for Active; 'I' for Inactive)
REMARK                            x       y       z     vdW  Elec       q    Type
REMARK                         _______ _______ _______ _____ _____    ______ ____
ROOT
ATOM      1  C   UNL     1      72.431  72.000  60.788  0.00  0.00    +0.000 A 
ATOM      2  C   UNL     1      73.503  72.636  60.182  0.00  0.00    +0.000 A 
ATOM      3  C   UNL     1      73.468  72.886  58.813  0.00  0.00    +0.000 A 
ATOM      4  C   UNL     1      72.362  72.507  58.034  0.00  0.00    +0.000 A 
ATOM      5  C   UNL     1      72.363  72.776  56.663  0.00  0.00    +0.000 A 
ATOM      6  C   UNL     1      71.282  72.413  55.864  0.00  0.00    +0.000 A 
ATOM      7  C   UNL     1      70.170  71.770  56.412  0.00  0.00    +0.000 A 
ATOM      8  C   UNL     1      69.095  71.416  55.577  0.00  0.00    +0.000 A 
ATOM      9  C   UNL     1      67.970  70.774  56.087  0.00  0.00    +0.000 A 
ATOM     10  C   UNL     1      67.906  70.478  57.439  0.00  0.00    +0.000 A 
ATOM     11  C   UNL     1      68.968  70.824  58.279  0.00  0.00    +0.000 A 
ATOM     12  C   UNL     1      70.131  71.479  57.800  0.00  0.00    +0.000 A 
ATOM     13  C   UNL     1      71.250  71.855  58.627  0.00  0.00    +0.000 A 
ATOM     14  C   UNL     1      71.325  71.617  60.023  0.00  0.00    +0.000 A 
ENDROOT
TORSDOF 0
ENDMDL
MODEL 5
REMARK VINA RESULT:    -6.745      1.826      2.654
REMARK INTER + INTRA:          -6.745
REMARK INTER:                  -6.745
REMARK INTRA:                   0.000
REMARK UNBOUND:                 0.000
REMARK  Name = phenanthrene
REMARK  0 active torsions:
REMARK  status: ('A' for Active; 'I' for Inactive)
REMARK                            x       y       z     vdW  Elec       q    Type
REMARK                         _______ _______ _______ _____ _____    ______ ____
ROOT
ATOM      1  C   UNL     1      67.992  71.167  55.806  0.00  0.00    +0.000 A 
ATOM      2  C   UNL     1      67.761  70.914  57.149  0.00  0.00    +0.000 A 
ATOM      3  C   UNL     1      68.830  70.905  58.040  0.00  0.00    +0.000 A 
ATOM      4  C   UNL     1      70.142  71.152  57.600  0.00  0.00    +0.000 A 
ATOM      5  C   UNL     1      71.190  71.136  58.524  0.00  0.00    +0.000 A 
ATOM      6  C   UNL     1      72.501  71.376  58.122  0.00  0.00    +0.000 A 
ATOM      7  C   UNL     1      72.802  71.640  56.783  0.00  0.00    +0.000 A 
ATOM      8  C   UNL     1      74.136  71.878  56.409  0.00  0.00    +0.000 A 
ATOM      9  C   UNL     1      74.475  72.143  55.085  0.00  0.00    +0.000 A 
ATOM     10  C   UNL     1      73.482  72.173  54.118  0.00  0.00    +0.000 A 
ATOM     11  C   UNL     1      72.153  71.937  54.478  0.00  0.00    +0.000 A 
ATOM     12  C   UNL     1      71.766  71.664  55.815  0.00  0.00    +0.000 A 
ATOM     13  C   UNL     1      70.409  71.415  56.232  0.00  0.00    +0.000 A 
ATOM     14  C   UNL     1      69.293  71.414  55.357  0.00  0.00    +0.000 A 
ENDROOT
TORSDOF 0
ENDMDL
MODEL 6
REMARK VINA RESULT:    -6.738      1.817      4.479
REMARK INTER + INTRA:          -6.738
REMARK INTER:                  -6.738
REMARK INTRA:                   0.000
REMARK UNBOUND:                 0.000
REMARK  Name = phenanthrene
REMARK  0 active torsions:
REMARK  status: ('A' for Active; 'I' for Inactive)
REMARK                            x       y       z     vdW  Elec       q    Type
REMARK                         _______ _______ _______ _____ _____    ______ ____
ROOT
ATOM      1  C   UNL     1      73.468  72.179  54.150  0.00  0.00    +0.000 A 
ATOM      2  C   UNL     1      74.473  72.136  55.103  0.00  0.00    +0.000 A 
ATOM      3  C   UNL     1      74.150  71.862  56.430  0.00  0.00    +0.000 A 
ATOM      4  C   UNL     1      72.820  71.628  56.819  0.00  0.00    +0.000 A 
ATOM      5  C   UNL     1      72.535  71.356  58.159  0.00  0.00    +0.000 A 
ATOM      6  C   UNL     1      71.229  71.119  58.577  0.00  0.00    +0.000 A 
ATOM      7  C   UNL     1      70.169  71.147  57.668  0.00  0.00    +0.000 A 
ATOM      8  C   UNL     1      68.861  70.904  58.122  0.00  0.00    +0.000 A 
ATOM      9  C   UNL     1      67.780  70.924  57.246  0.00  0.00    +0.000 A 
ATOM     10  C   UNL     1      67.995  71.187  55.902  0.00  0.00    +0.000 A 
ATOM     11  C   UNL     1      69.290  71.431  55.438  0.00  0.00    +0.000 A 
ATOM     12  C   UNL     1      70.418  71.420  56.298  0.00  0.00    +0.000 A 
ATOM     13  C   UNL     1      71.770  71.665  55.865  0.00  0.00    +0.000 A 
ATOM     14  C   UNL     1      72.141  71.947  54.526  0.00  0.00    +0.000 A 
ENDROOT
TORSDOF 0
ENDMDL
MODEL 7
REMARK VINA RESULT:    -6.459      1.865      3.732
REMARK INTER + INTRA:          -6.459
REMARK INTER:                  -6.459
REMARK INTRA:                   0.000
REMARK UNBOUND:                 0.000
REMARK  Name = phenanthrene
REMARK  0 active torsions:
REMARK  status: ('A' for Active; 'I' for Inactive)
REMARK                            x       y       z     vdW  Elec       q    Type
REMARK                         _______ _______ _______ _____ _____    ______ ____
ROOT
ATOM      1  C   UNL     1      70.443  70.573  59.540  0.00  0.00    +0.000 A 
ATOM      2  C   UNL     1      69.116  70.613  59.142  0.00  0.00    +0.000 A 
ATOM      3  C   UNL     1      68.801  70.985  57.838  0.00  0.00    +0.000 A 
ATOM      4  C   UNL     1      69.808  71.320  56.917  0.00  0.00    +0.000 A 
ATOM      5  C   UNL     1      69.454  71.689  55.616  0.00  0.00    +0.000 A 
ATOM      6  C   UNL     1      70.426  72.027  54.680  0.00  0.00    +0.000 A 
ATOM      7  C   UNL     1      71.782  72.006  55.016  0.00  0.00    +0.000 A 
ATOM      8  C   UNL     1      72.740  72.353  54.047  0.00  0.00    +0.000 A 
ATOM      9  C   UNL     1      74.100  72.346  54.345  0.00  0.00    +0.000 A 
ATOM     10  C   UNL     1      74.518  71.989  55.617  0.00  0.00    +0.000 A 
ATOM     11  C   UNL     1      73.576  71.643  56.589  0.00  0.00    +0.000 A 
ATOM     12  C   UNL     1      72.182  71.638  56.326  0.00  0.00    +0.000 A 
ATOM     13  C   UNL     1      71.175  71.288  57.296  0.00  0.00    +0.000 A 
ATOM     14  C   UNL     1      71.453  70.905  58.632  0.00  0.00    +0.000 A 
ENDROOT
TORSDOF 0
ENDMDL
MODEL 8
REMARK VINA RESULT:    -6.398      1.872      4.500
REMARK INTER + INTRA:          -6.398
REMARK INTER:                  -6.398
REMARK INTRA:                   0.000
REMARK UNBOUND:                 0.000
REMARK  Name = phenanthrene
REMARK  0 active torsions:
REMARK  status: ('A' for Active; 'I' for Inactive)
REMARK                            x       y       z     vdW  Elec       q    Type
REMARK                         _______ _______ _______ _____ _____    ______ ____
ROOT
ATOM      1  C   UNL     1      74.595  72.047  55.679  0.00  0.00    +0.000 A 
ATOM      2  C   UNL     1      74.199  72.404  54.399  0.00  0.00    +0.000 A 
ATOM      3  C   UNL     1      72.846  72.393  54.071  0.00  0.00    +0.000 A 
ATOM      4  C   UNL     1      71.874  72.027  55.018  0.00  0.00    +0.000 A 
ATOM      5  C   UNL     1      70.525  72.028  54.652  0.00  0.00    +0.000 A 
ATOM      6  C   UNL     1      69.537  71.671  55.566  0.00  0.00    +0.000 A 
ATOM      7  C   UNL     1      69.869  71.302  56.872  0.00  0.00    +0.000 A 
ATOM      8  C   UNL     1      68.848  70.947  57.770  0.00  0.00    +0.000 A 
ATOM      9  C   UNL     1      69.139  70.572  59.079  0.00  0.00    +0.000 A 
ATOM     10  C   UNL     1      70.458  70.550  59.505  0.00  0.00    +0.000 A 
ATOM     11  C   UNL     1      71.482  70.901  58.622  0.00  0.00    +0.000 A 
ATOM     12  C   UNL     1      71.227  71.288  57.281  0.00  0.00    +0.000 A 
ATOM     13  C   UNL     1      72.250  71.657  56.336  0.00  0.00    +0.000 A 
ATOM     14  C   UNL     1      73.637  71.681  56.629  0.00  0.00    +0.000 A 
ENDROOT
TORSDOF 0
ENDMDL
MODEL 9
REMARK VINA RESULT:    -6.232      1.317      4.665
REMARK INTER + INTRA:          -6.232
REMARK INTER:                  -6.232
REMARK INTRA:                   0.000
REMARK UNBOUND:                 0.000
REMARK  Name = phenanthrene
REMARK  0 active torsions:
REMARK  status: ('A' for Active; 'I' for Inactive)
REMARK                            x       y       z     vdW  Elec       q    Type
REMARK                         _______ _______ _______ _____ _____    ______ ____
ROOT
ATOM      1  C   UNL     1      74.394  73.558  60.157  0.00  0.00    +0.000 A 
ATOM      2  C   UNL     1      73.935  72.890  61.281  0.00  0.00    +0.000 A 
ATOM      3  C   UNL     1      72.799  72.090  61.188  0.00  0.00    +0.000 A 
ATOM      4  C   UNL     1      72.110  71.948  59.971  0.00  0.00    +0.000 A 
ATOM      5  C   UNL     1      70.974  71.136  59.917  0.00  0.00    +0.000 A 
ATOM      6  C   UNL     1      70.269  70.974  58.727  0.00  0.00    +0.000 A 
ATOM      7  C   UNL     1      70.679  71.619  57.558  0.00  0.00    +0.000 A 
ATOM      8  C   UNL     1      69.945  71.435  56.373  0.00  0.00    +0.000 A 
ATOM      9  C   UNL     1      70.322  72.062  55.189  0.00  0.00    +0.000 A 
ATOM     10  C   UNL     1      71.440  72.880  55.175  0.00  0.00    +0.000 A 
ATOM     11  C   UNL     1      72.178  73.072  56.346  0.00  0.00    +0.000 A 
ATOM     12  C   UNL     1      71.827  72.452  57.573  0.00  0.00    +0.000 A 
ATOM     13  C   UNL     1      72.557  72.620  58.804  0.00  0.00    +0.000 A 
ATOM     14  C   UNL     1      73.717  73.424  58.941  0.00  0.00    +0.000 A 
ENDROOT
TORSDOF 0
ENDMDL
