MODEL 1
REMARK VINA RESULT:    -7.363      0.000      0.000
REMARK INTER + INTRA:          -7.363
REMARK INTER:                  -7.363
REMARK INTRA:                   0.000
REMARK UNBOUND:                 0.000
REMARK  Name = anthracene
REMARK  0 active torsions:
REMARK  status: ('A' for Active; 'I' for Inactive)
REMARK                            x       y       z     vdW  Elec       q    Type
REMARK                         _______ _______ _______ _____ _____    ______ ____
ROOT
ATOM      1  C   UNL     1      68.382  71.209  55.300  0.00  0.00    +0.000 A 
ATOM      2  C   UNL     1      67.682  70.629  56.353  0.00  0.00    +0.000 A 
ATOM      3  C   UNL     1      68.234  70.618  57.634  0.00  0.00    +0.000 A 
ATOM      4  C   UNL     1      69.495  71.188  57.879  0.00  0.00    +0.000 A 
ATOM      5  C   UNL     1      70.064  71.187  59.163  0.00  0.00    +0.000 A 
ATOM      6  C   UNL     1      71.324  71.757  59.407  0.00  0.00    +0.000 A 
ATOM      7  C   UNL     1      71.893  71.755  60.692  0.00  0.00    +0.000 A 
ATOM      8  C   UNL     1      73.146  72.327  60.918  0.00  0.00    +0.000 A 
ATOM      9  C   UNL     1      73.846  72.907  59.865  0.00  0.00    +0.000 A 
ATOM     10  C   UNL     1      73.294  72.918  58.584  0.00  0.00    +0.000 A 
ATOM     11  C   UNL     1      72.033  72.347  58.339  0.00  0.00    +0.000 A 
ATOM     12  C   UNL     1      71.464  72.349  57.055  0.00  0.00    +0.000 A 
ATOM     13  C   UNL     1      70.204  71.778  56.811  0.00  0.00    +0.000 A 
ATOM     14  C   UNL     1      69.636  71.781  55.526  0.00  0.00    +0.000 A 
ENDROOT
TORSDOF 0
ENDMDL
MODEL 2
REMARK VINA RESULT:    -7.349      0.067      2.110
REMARK INTER + INTRA:          -7.349
REMARK INTER:                  -7.349
REMARK INTRA:                   0.000
REMARK UNBOUND:                 0.000
REMARK  Name = anthracene
REMARK  0 active torsions:
REMARK  status: ('A' for Active; 'I' for Inactive)
REMARK                            x       y       z     vdW  Elec       q    Type
REMARK                         _______ _______ _______ _____ _____    ______ ____
ROOT
ATOM      1  C   UNL     1      67.691  70.627  56.368  0.00  0.00    +0.000 A 
ATOM      2  C   UNL     1      68.380  71.189  55.298  0.00  0.00    +0.000 A 
ATOM      3  C   UNL     1      69.638  71.759  55.502  0.00  0.00    +0.000 A 
ATOM      4  C   UNL     1      70.222  71.774  56.780  0.00  0.00    +0.000 A 
ATOM      5  C   UNL     1      71.487  72.344  57.001  0.00  0.00    +0.000 A 
ATOM      6  C   UNL     1      72.070  72.358  58.279  0.00  0.00    +0.000 A 
ATOM      7  C   UNL     1      73.335  72.928  58.500  0.00  0.00    +0.000 A 
ATOM      8  C   UNL     1      73.902  72.935  59.776  0.00  0.00    +0.000 A 
ATOM      9  C   UNL     1      73.213  72.373  60.845  0.00  0.00    +0.000 A 
ATOM     10  C   UNL     1      71.955  71.802  60.642  0.00  0.00    +0.000 A 
ATOM     11  C   UNL     1      71.371  71.787  59.364  0.00  0.00    +0.000 A 
ATOM     12  C   UNL     1      70.106  71.218  59.143  0.00  0.00    +0.000 A 
ATOM     13  C   UNL     1      69.523  71.203  57.865  0.00  0.00    +0.000 A 
ATOM     14  C   UNL     1      68.258  70.633  57.644  0.00  0.00    +0.000 A 
ENDROOT
TORSDOF 0
ENDMDL
MODEL 3
REMARK VINA RESULT:    -7.347      0.068      5.323
REMARK INTER + INTRA:          -7.347
REMARK INTER:                  -7.347
REMARK INTRA:                   0.000
REMARK UNBOUND:                 0.000
REMARK  Name = anthracene
REMARK  0 active torsions:
REMARK  status: ('A' for Active; 'I' for Inactive)
REMARK                            x       y       z     vdW  Elec       q    Type
REMARK                         _______ _______ _______ _____ _____    ______ ____
ROOT
ATOM      1  C   UNL     1      73.220  72.326  60.855  0.00  0.00    +0.000 A 
ATOM      2  C   UNL     1      73.893  72.907  59.786  0.00  0.00    +0.000 A 
ATOM      3  C   UNL     1      73.315  72.908  58.515  0.00  0.00    +0.000 A 
ATOM      4  C   UNL     1      72.054  72.327  58.298  0.00  0.00    +0.000 A 
ATOM      5  C   UNL     1      71.459  72.321  57.026  0.00  0.00    +0.000 A 
ATOM      6  C   UNL     1      70.198  71.740  56.811  0.00  0.00    +0.000 A 
ATOM      7  C   UNL     1      69.603  71.734  55.538  0.00  0.00    +0.000 A 
ATOM      8  C   UNL     1      68.349  71.152  55.339  0.00  0.00    +0.000 A 
ATOM      9  C   UNL     1      67.676  70.571  56.408  0.00  0.00    +0.000 A 
ATOM     10  C   UNL     1      68.253  70.570  57.679  0.00  0.00    +0.000 A 
ATOM     11  C   UNL     1      69.514  71.151  57.895  0.00  0.00    +0.000 A 
ATOM     12  C   UNL     1      70.110  71.157  59.168  0.00  0.00    +0.000 A 
ATOM     13  C   UNL     1      71.370  71.738  59.383  0.00  0.00    +0.000 A 
ATOM     14  C   UNL     1      71.965  71.745  60.656  0.00  0.00    +0.000 A 
ENDROOT
TORSDOF 0
ENDMDL
MODEL 4
REMARK VINA RESULT:    -7.335      0.044      4.888
REMARK INTER + INTRA:          -7.335
REMARK INTER:                  -7.335
REMARK INTRA:                   0.000
REMARK UNBOUND:                 0.000
REMARK  Name = anthracene
REMARK  0 active torsions:
REMARK  status: ('A' for Active; 'I' for Inactive)
REMARK                            x       y       z     vdW  Elec       q    Type
REMARK                         _______ _______ _______ _____ _____    ______ ____
ROOT
ATOM      1  C   UNL     1      73.866  72.893  59.810  0.00  0.00    +0.000 A 
ATOM      2  C   UNL     1      73.159  72.341  60.873  0.00  0.00    +0.000 A 
ATOM      3  C   UNL     1      71.897  71.786  60.657  0.00  0.00    +0.000 A 
ATOM      4  C   UNL     1      71.326  71.776  59.374  0.00  0.00    +0.000 A 
ATOM      5  C   UNL     1      70.057  71.220  59.140  0.00  0.00    +0.000 A 
ATOM      6  C   UNL     1      69.487  71.210  57.856  0.00  0.00    +0.000 A 
ATOM      7  C   UNL     1      68.217  70.654  57.623  0.00  0.00    +0.000 A 
ATOM      8  C   UNL     1      67.664  70.652  56.341  0.00  0.00    +0.000 A 
ATOM      9  C   UNL     1      68.370  71.204  55.278  0.00  0.00    +0.000 A 
ATOM     10  C   UNL     1      69.633  71.759  55.494  0.00  0.00    +0.000 A 
ATOM     11  C   UNL     1      70.204  71.769  56.777  0.00  0.00    +0.000 A 
ATOM     12  C   UNL     1      71.473  72.325  57.011  0.00  0.00    +0.000 A 
ATOM     13  C   UNL     1      72.043  72.335  58.295  0.00  0.00    +0.000 A 
ATOM     14  C   UNL     1      73.312  72.890  58.528  0.00  0.00    +0.000 A 
ENDROOT
TORSDOF 0
ENDMDL
MODEL 5
REMARK VINA RESULT:    -7.161      0.796      2.329
REMARK INTER + INTRA:          -7.161
REMARK INTER:                  -7.161
REMARK INTRA:                   0.000
REMARK UNBOUND:                 0.000
REMARK  Name = anthracene
REMARK  0 active torsions:
REMARK  status: ('A' for Active; 'I' for Inactive)
REMARK                            x       y       z     vdW  Elec       q    Type
REMARK                         _______ _______ _______ _____ _____    ______ ____
ROOT
ATOM      1  C   UNL     1      68.113  70.281  57.668  0.00  0.00    +0.000 A 
ATOM      2  C   UNL     1      68.532  70.918  56.505  0.00  0.00    +0.000 A 
ATOM      3  C   UNL     1      69.719  71.653  56.501  0.00  0.00    +0.000 A 
ATOM      4  C   UNL     1      70.502  71.759  57.662  0.00  0.00    +0.000 A 
ATOM      5  C   UNL     1      71.699  72.494  57.675  0.00  0.00    +0.000 A 
ATOM      6  C   UNL     1      72.482  72.600  58.836  0.00  0.00    +0.000 A 
ATOM      7  C   UNL     1      73.679  73.336  58.848  0.00  0.00    +0.000 A 
ATOM      8  C   UNL     1      74.446  73.432  60.011  0.00  0.00    +0.000 A 
ATOM      9  C   UNL     1      74.027  72.795  61.174  0.00  0.00    +0.000 A 
ATOM     10  C   UNL     1      72.841  72.060  61.178  0.00  0.00    +0.000 A 
ATOM     11  C   UNL     1      72.057  71.953  60.017  0.00  0.00    +0.000 A 
ATOM     12  C   UNL     1      70.861  71.218  60.004  0.00  0.00    +0.000 A 
ATOM     13  C   UNL     1      70.078  71.112  58.843  0.00  0.00    +0.000 A 
ATOM     14  C   UNL     1      68.881  70.376  58.831  0.00  0.00    +0.000 A 
ENDROOT
TORSDOF 0
ENDMDL
MODEL 6
REMARK VINA RESULT:    -6.565      2.244      3.567
REMARK INTER + INTRA:          -6.565
REMARK INTER:                  -6.565
REMARK INTRA:                   0.000
REMARK UNBOUND:                 0.000
REMARK  Name = anthracene
REMARK  0 active torsions:
REMARK  status: ('A' for Active; 'I' for Inactive)
REMARK                            x       y       z     vdW  Elec       q    Type
REMARK                         _______ _______ _______ _____ _____    ______ ____
ROOT
ATOM      1  C   UNL     1      68.121  70.860  57.422  0.00  0.00    +0.000 A 
ATOM      2  C   UNL     1      68.831  70.659  58.600  0.00  0.00    +0.000 A 
ATOM      3  C   UNL     1      70.218  70.811  58.613  0.00  0.00    +0.000 A 
ATOM      4  C   UNL     1      70.913  71.168  57.445  0.00  0.00    +0.000 A 
ATOM      5  C   UNL     1      72.309  71.326  57.441  0.00  0.00    +0.000 A 
ATOM      6  C   UNL     1      73.002  71.683  56.273  0.00  0.00    +0.000 A 
ATOM      7  C   UNL     1      74.399  71.840  56.270  0.00  0.00    +0.000 A 
ATOM      8  C   UNL     1      75.074  72.196  55.100  0.00  0.00    +0.000 A 
ATOM      9  C   UNL     1      74.364  72.398  53.922  0.00  0.00    +0.000 A 
ATOM     10  C   UNL     1      72.976  72.245  53.909  0.00  0.00    +0.000 A 
ATOM     11  C   UNL     1      72.282  71.889  55.077  0.00  0.00    +0.000 A 
ATOM     12  C   UNL     1      70.886  71.731  55.081  0.00  0.00    +0.000 A 
ATOM     13  C   UNL     1      70.192  71.374  56.249  0.00  0.00    +0.000 A 
ATOM     14  C   UNL     1      68.796  71.216  56.252  0.00  0.00    +0.000 A 
ENDROOT
TORSDOF 0
ENDMDL
MODEL 7
REMARK VINA RESULT:    -6.551      2.222      3.814
REMARK INTER + INTRA:          -6.551
REMARK INTER:                  -6.551
REMARK INTRA:                   0.000
REMARK UNBOUND:                 0.000
REMARK  Name = anthracene
REMARK  0 active torsions:
REMARK  status: ('A' for Active; 'I' for Inactive)
REMARK                            x       y       z     vdW  Elec       q    Type
REMARK                         _______ _______ _______ _____ _____    ______ ____
ROOT
ATOM      1  C   UNL     1      68.776  70.646  58.576  0.00  0.00    +0.000 A 
ATOM      2  C   UNL     1      68.076  70.858  57.393  0.00  0.00    +0.000 A 
ATOM      3  C   UNL     1      68.761  71.221  56.232  0.00  0.00    +0.000 A 
ATOM      4  C   UNL     1      70.158  71.375  56.241  0.00  0.00    +0.000 A 
ATOM      5  C   UNL     1      70.862  71.739  55.081  0.00  0.00    +0.000 A 
ATOM      6  C   UNL     1      72.258  71.892  55.091  0.00  0.00    +0.000 A 
ATOM      7  C   UNL     1      72.963  72.256  53.930  0.00  0.00    +0.000 A 
ATOM      8  C   UNL     1      74.351  72.405  53.955  0.00  0.00    +0.000 A 
ATOM      9  C   UNL     1      75.051  72.193  55.138  0.00  0.00    +0.000 A 
ATOM     10  C   UNL     1      74.366  71.831  56.299  0.00  0.00    +0.000 A 
ATOM     11  C   UNL     1      72.969  71.676  56.290  0.00  0.00    +0.000 A 
ATOM     12  C   UNL     1      72.265  71.313  57.450  0.00  0.00    +0.000 A 
ATOM     13  C   UNL     1      70.869  71.159  57.440  0.00  0.00    +0.000 A 
ATOM     14  C   UNL     1      70.164  70.795  58.601  0.00  0.00    +0.000 A 
ENDROOT
TORSDOF 0
ENDMDL
MODEL 8
REMARK VINA RESULT:    -6.509      2.301      4.583
REMARK INTER + INTRA:          -6.509
REMARK INTER:                  -6.509
REMARK INTRA:                   0.000
REMARK UNBOUND:                 0.000
REMARK  Name = anthracene
REMARK  0 active torsions:
REMARK  status: ('A' for Active; 'I' for Inactive)
REMARK                            x       y       z     vdW  Elec       q    Type
REMARK                         _______ _______ _______ _____ _____    ______ ____
ROOT
ATOM      1  C   UNL     1      74.291  72.376  53.806  0.00  0.00    +0.000 A 
ATOM      2  C   UNL     1      75.099  72.184  54.922  0.00  0.00    +0.000 A 
ATOM      3  C   UNL     1      74.526  71.842  56.148  0.00  0.00    +0.000 A 
ATOM      4  C   UNL     1      73.135  71.685  56.272  0.00  0.00    +0.000 A 
ATOM      5  C   UNL     1      72.543  71.339  57.498  0.00  0.00    +0.000 A 
ATOM      6  C   UNL     1      71.152  71.183  57.621  0.00  0.00    +0.000 A 
ATOM      7  C   UNL     1      70.560  70.837  58.847  0.00  0.00    +0.000 A 
ATOM      8  C   UNL     1      69.176  70.685  58.954  0.00  0.00    +0.000 A 
ATOM      9  C   UNL     1      68.368  70.876  57.838  0.00  0.00    +0.000 A 
ATOM     10  C   UNL     1      68.941  71.219  56.612  0.00  0.00    +0.000 A 
ATOM     11  C   UNL     1      70.332  71.375  56.488  0.00  0.00    +0.000 A 
ATOM     12  C   UNL     1      70.925  71.721  55.262  0.00  0.00    +0.000 A 
ATOM     13  C   UNL     1      72.315  71.878  55.139  0.00  0.00    +0.000 A 
ATOM     14  C   UNL     1      72.907  72.223  53.913  0.00  0.00    +0.000 A 
ENDROOT
TORSDOF 0
ENDMDL
MODEL 9
REMARK VINA RESULT:    -6.474      2.249      4.823
REMARK INTER + INTRA:          -6.474
REMARK INTER:                  -6.474
REMARK INTRA:                   0.000
REMARK UNBOUND:                 0.000
REMARK  Name = anthracene
REMARK  0 active torsions:
REMARK  status: ('A' for Active; 'I' for Inactive)
REMARK                            x       y       z     vdW  Elec       q    Type
REMARK                         _______ _______ _______ _____ _____    ______ ____
ROOT
ATOM      1  C   UNL     1      75.142  72.279  55.107  0.00  0.00    +0.000 A 
ATOM      2  C   UNL     1      74.389  72.471  53.953  0.00  0.00    +0.000 A 
ATOM      3  C   UNL     1      73.004  72.300  53.988  0.00  0.00    +0.000 A 
ATOM      4  C   UNL     1      72.355  71.934  55.180  0.00  0.00    +0.000 A 
ATOM      5  C   UNL     1      70.962  71.759  55.232  0.00  0.00    +0.000 A 
ATOM      6  C   UNL     1      70.314  71.394  56.423  0.00  0.00    +0.000 A 
ATOM      7  C   UNL     1      68.921  71.219  56.475  0.00  0.00    +0.000 A 
ATOM      8  C   UNL     1      68.291  70.856  57.667  0.00  0.00    +0.000 A 
ATOM      9  C   UNL     1      69.044  70.665  58.821  0.00  0.00    +0.000 A 
ATOM     10  C   UNL     1      70.429  70.836  58.785  0.00  0.00    +0.000 A 
ATOM     11  C   UNL     1      71.078  71.201  57.594  0.00  0.00    +0.000 A 
ATOM     12  C   UNL     1      72.471  71.376  57.542  0.00  0.00    +0.000 A 
ATOM     13  C   UNL     1      73.119  71.741  56.350  0.00  0.00    +0.000 A 
ATOM     14  C   UNL     1      74.512  71.916  56.299  0.00  0.00    +0.000 A 
ENDROOT
TORSDOF 0
ENDMDL
