MODEL 1
REMARK VINA RESULT:    -5.223      0.000      0.000
REMARK INTER + INTRA:          -5.223
REMARK INTER:                  -5.223
REMARK INTRA:                   0.000
REMARK UNBOUND:                 0.000
REMARK SMILES c1ccc2ccccc2c1
REMARK SMILES IDX 2 1 1 2 10 3 9 4 8 5 7 6 6 7 5 8 4 9 3 10
REMARK H PARENT
ROOT
ATOM      1  C   UNL     1      81.250  56.850  61.081  1.00  0.00     0.001 A 
ATOM      2  C   UNL     1      81.498  56.076  59.951  1.00  0.00     0.001 A 
ATOM      3  C   UNL     1      81.498  56.668  58.686  1.00  0.00     0.009 A 
ATOM      4  C   UNL     1      81.248  58.042  58.537  1.00  0.00    -0.018 A 
ATOM      5  C   UNL     1      81.245  58.652  57.272  1.00  0.00     0.009 A 
ATOM      6  C   UNL     1      80.995  60.019  57.141  1.00  0.00     0.001 A 
ATOM      7  C   UNL     1      80.747  60.793  58.271  1.00  0.00     0.001 A 
ATOM      8  C   UNL     1      80.748  60.201  59.535  1.00  0.00     0.009 A 
ATOM      9  C   UNL     1      80.997  58.827  59.685  1.00  0.00    -0.018 A 
ATOM     10  C   UNL     1      81.000  58.217  60.949  1.00  0.00     0.009 A 
ENDROOT
TORSDOF 0
ENDMDL
MODEL 2
REMARK VINA RESULT:    -5.221      0.098      4.021
REMARK INTER + INTRA:          -5.221
REMARK INTER:                  -5.221
REMARK INTRA:                   0.000
REMARK UNBOUND:                 0.000
REMARK SMILES c1ccc2ccccc2c1
REMARK SMILES IDX 2 1 1 2 10 3 9 4 8 5 7 6 6 7 5 8 4 9 3 10
REMARK H PARENT
ROOT
ATOM      1  C   UNL     1      80.974  59.896  57.106  1.00  0.00     0.001 A 
ATOM      2  C   UNL     1      80.715  60.685  58.223  1.00  0.00     0.001 A 
ATOM      3  C   UNL     1      80.719  60.114  59.497  1.00  0.00     0.009 A 
ATOM      4  C   UNL     1      80.981  58.745  59.669  1.00  0.00    -0.018 A 
ATOM      5  C   UNL     1      80.989  58.156  60.944  1.00  0.00     0.009 A 
ATOM      6  C   UNL     1      81.251  56.793  61.098  1.00  0.00     0.001 A 
ATOM      7  C   UNL     1      81.509  56.004  59.981  1.00  0.00     0.001 A 
ATOM      8  C   UNL     1      81.506  56.575  58.707  1.00  0.00     0.009 A 
ATOM      9  C   UNL     1      81.244  57.944  58.535  1.00  0.00    -0.018 A 
ATOM     10  C   UNL     1      81.235  58.533  57.261  1.00  0.00     0.009 A 
ENDROOT
TORSDOF 0
ENDMDL
MODEL 3
REMARK VINA RESULT:    -5.210      0.072      2.070
REMARK INTER + INTRA:          -5.210
REMARK INTER:                  -5.210
REMARK INTRA:                   0.000
REMARK UNBOUND:                 0.000
REMARK SMILES c1ccc2ccccc2c1
REMARK SMILES IDX 2 1 1 2 10 3 9 4 8 5 7 6 6 7 5 8 4 9 3 10
REMARK H PARENT
ROOT
ATOM      1  C   UNL     1      81.488  56.061  59.962  1.00  0.00     0.001 A 
ATOM      2  C   UNL     1      81.277  56.865  61.078  1.00  0.00     0.001 A 
ATOM      3  C   UNL     1      81.041  58.232  60.919  1.00  0.00     0.009 A 
ATOM      4  C   UNL     1      81.013  58.812  59.640  1.00  0.00    -0.018 A 
ATOM      5  C   UNL     1      80.776  60.184  59.464  1.00  0.00     0.009 A 
ATOM      6  C   UNL     1      80.753  60.745  58.185  1.00  0.00     0.001 A 
ATOM      7  C   UNL     1      80.964  59.941  57.069  1.00  0.00     0.001 A 
ATOM      8  C   UNL     1      81.200  58.575  57.228  1.00  0.00     0.009 A 
ATOM      9  C   UNL     1      81.227  57.995  58.507  1.00  0.00    -0.018 A 
ATOM     10  C   UNL     1      81.464  56.622  58.683  1.00  0.00     0.009 A 
ENDROOT
TORSDOF 0
ENDMDL
MODEL 4
REMARK VINA RESULT:    -5.180      0.119      3.448
REMARK INTER + INTRA:          -5.180
REMARK INTER:                  -5.180
REMARK INTRA:                   0.000
REMARK UNBOUND:                 0.000
REMARK SMILES c1ccc2ccccc2c1
REMARK SMILES IDX 2 1 1 2 10 3 9 4 8 5 7 6 6 7 5 8 4 9 3 10
REMARK H PARENT
ROOT
ATOM      1  C   UNL     1      80.613  60.726  58.144  1.00  0.00     0.001 A 
ATOM      2  C   UNL     1      80.916  59.933  57.041  1.00  0.00     0.001 A 
ATOM      3  C   UNL     1      81.213  58.580  57.214  1.00  0.00     0.009 A 
ATOM      4  C   UNL     1      81.210  58.003  58.495  1.00  0.00    -0.018 A 
ATOM      5  C   UNL     1      81.505  56.644  58.686  1.00  0.00     0.009 A 
ATOM      6  C   UNL     1      81.498  56.086  59.966  1.00  0.00     0.001 A 
ATOM      7  C   UNL     1      81.196  56.879  61.069  1.00  0.00     0.001 A 
ATOM      8  C   UNL     1      80.899  58.232  60.895  1.00  0.00     0.009 A 
ATOM      9  C   UNL     1      80.902  58.808  59.615  1.00  0.00    -0.018 A 
ATOM     10  C   UNL     1      80.607  60.168  59.423  1.00  0.00     0.009 A 
ENDROOT
TORSDOF 0
ENDMDL
MODEL 5
REMARK VINA RESULT:    -4.821      6.546      8.538
REMARK INTER + INTRA:          -4.821
REMARK INTER:                  -4.821
REMARK INTRA:                   0.000
REMARK UNBOUND:                 0.000
REMARK SMILES c1ccc2ccccc2c1
REMARK SMILES IDX 2 1 1 2 10 3 9 4 8 5 7 6 6 7 5 8 4 9 3 10
REMARK H PARENT
ROOT
ATOM      1  C   UNL     1      81.613  56.264  64.930  1.00  0.00     0.001 A 
ATOM      2  C   UNL     1      80.930  55.057  65.047  1.00  0.00     0.001 A 
ATOM      3  C   UNL     1      79.962  54.896  66.040  1.00  0.00     0.009 A 
ATOM      4  C   UNL     1      79.665  55.943  66.928  1.00  0.00    -0.018 A 
ATOM      5  C   UNL     1      78.693  55.797  67.931  1.00  0.00     0.009 A 
ATOM      6  C   UNL     1      78.409  56.847  68.807  1.00  0.00     0.001 A 
ATOM      7  C   UNL     1      79.092  58.054  68.690  1.00  0.00     0.001 A 
ATOM      8  C   UNL     1      80.060  58.215  67.697  1.00  0.00     0.009 A 
ATOM      9  C   UNL     1      80.357  57.169  66.809  1.00  0.00    -0.018 A 
ATOM     10  C   UNL     1      81.329  57.314  65.806  1.00  0.00     0.009 A 
ENDROOT
TORSDOF 0
ENDMDL
MODEL 6
REMARK VINA RESULT:    -4.790      5.993      8.036
REMARK INTER + INTRA:          -4.790
REMARK INTER:                  -4.790
REMARK INTRA:                   0.000
REMARK UNBOUND:                 0.000
REMARK SMILES c1ccc2ccccc2c1
REMARK SMILES IDX 2 1 1 2 10 3 9 4 8 5 7 6 6 7 5 8 4 9 3 10
REMARK H PARENT
ROOT
ATOM      1  C   UNL     1      80.937  57.191  64.552  1.00  0.00     0.001 A 
ATOM      2  C   UNL     1      81.349  56.433  65.644  1.00  0.00     0.001 A 
ATOM      3  C   UNL     1      81.039  56.850  66.940  1.00  0.00     0.009 A 
ATOM      4  C   UNL     1      80.311  58.031  67.159  1.00  0.00    -0.018 A 
ATOM      5  C   UNL     1      79.989  58.462  68.456  1.00  0.00     0.009 A 
ATOM      6  C   UNL     1      79.265  59.639  68.657  1.00  0.00     0.001 A 
ATOM      7  C   UNL     1      78.853  60.397  67.565  1.00  0.00     0.001 A 
ATOM      8  C   UNL     1      79.164  59.981  66.269  1.00  0.00     0.009 A 
ATOM      9  C   UNL     1      79.892  58.800  66.050  1.00  0.00    -0.018 A 
ATOM     10  C   UNL     1      80.213  58.368  64.753  1.00  0.00     0.009 A 
ENDROOT
TORSDOF 0
ENDMDL
MODEL 7
REMARK VINA RESULT:    -4.789      5.958      7.914
REMARK INTER + INTRA:          -4.789
REMARK INTER:                  -4.789
REMARK INTRA:                   0.000
REMARK UNBOUND:                 0.000
REMARK SMILES c1ccc2ccccc2c1
REMARK SMILES IDX 2 1 1 2 10 3 9 4 8 5 7 6 6 7 5 8 4 9 3 10
REMARK H PARENT
ROOT
ATOM      1  C   UNL     1      81.313  56.434  65.637  1.00  0.00     0.001 A 
ATOM      2  C   UNL     1      80.889  57.165  64.530  1.00  0.00     0.001 A 
ATOM      3  C   UNL     1      80.160  58.342  64.709  1.00  0.00     0.009 A 
ATOM      4  C   UNL     1      79.845  58.803  65.997  1.00  0.00    -0.018 A 
ATOM      5  C   UNL     1      79.113  59.985  66.193  1.00  0.00     0.009 A 
ATOM      6  C   UNL     1      78.808  60.429  67.481  1.00  0.00     0.001 A 
ATOM      7  C   UNL     1      79.232  59.699  68.588  1.00  0.00     0.001 A 
ATOM      8  C   UNL     1      79.961  58.522  68.410  1.00  0.00     0.009 A 
ATOM      9  C   UNL     1      80.276  58.061  67.121  1.00  0.00    -0.018 A 
ATOM     10  C   UNL     1      81.008  56.879  66.925  1.00  0.00     0.009 A 
ENDROOT
TORSDOF 0
ENDMDL
MODEL 8
REMARK VINA RESULT:    -4.778      6.006      8.234
REMARK INTER + INTRA:          -4.778
REMARK INTER:                  -4.778
REMARK INTRA:                   0.000
REMARK UNBOUND:                 0.000
REMARK SMILES c1ccc2ccccc2c1
REMARK SMILES IDX 2 1 1 2 10 3 9 4 8 5 7 6 6 7 5 8 4 9 3 10
REMARK H PARENT
ROOT
ATOM      1  C   UNL     1      78.771  60.375  67.475  1.00  0.00     0.001 A 
ATOM      2  C   UNL     1      79.183  59.675  68.604  1.00  0.00     0.001 A 
ATOM      3  C   UNL     1      79.932  58.505  68.465  1.00  0.00     0.009 A 
ATOM      4  C   UNL     1      80.279  58.022  67.193  1.00  0.00    -0.018 A 
ATOM      5  C   UNL     1      81.033  56.848  67.036  1.00  0.00     0.009 A 
ATOM      6  C   UNL     1      81.369  56.380  65.764  1.00  0.00     0.001 A 
ATOM      7  C   UNL     1      80.957  57.081  64.634  1.00  0.00     0.001 A 
ATOM      8  C   UNL     1      80.208  58.251  64.773  1.00  0.00     0.009 A 
ATOM      9  C   UNL     1      79.861  58.734  66.046  1.00  0.00    -0.018 A 
ATOM     10  C   UNL     1      79.107  59.908  66.203  1.00  0.00     0.009 A 
ENDROOT
TORSDOF 0
ENDMDL
MODEL 9
REMARK VINA RESULT:    -4.735      5.965      8.095
REMARK INTER + INTRA:          -4.735
REMARK INTER:                  -4.735
REMARK INTRA:                   0.000
REMARK UNBOUND:                 0.000
REMARK SMILES c1ccc2ccccc2c1
REMARK SMILES IDX 2 1 1 2 10 3 9 4 8 5 7 6 6 7 5 8 4 9 3 10
REMARK H PARENT
ROOT
ATOM      1  C   UNL     1      79.069  59.637  68.567  1.00  0.00     0.001 A 
ATOM      2  C   UNL     1      78.707  60.393  67.456  1.00  0.00     0.001 A 
ATOM      3  C   UNL     1      79.085  59.980  66.177  1.00  0.00     0.009 A 
ATOM      4  C   UNL     1      79.830  58.803  65.995  1.00  0.00    -0.018 A 
ATOM      5  C   UNL     1      80.217  58.373  64.715  1.00  0.00     0.009 A 
ATOM      6  C   UNL     1      80.958  57.201  64.551  1.00  0.00     0.001 A 
ATOM      7  C   UNL     1      81.320  56.445  65.662  1.00  0.00     0.001 A 
ATOM      8  C   UNL     1      80.942  56.859  66.940  1.00  0.00     0.009 A 
ATOM      9  C   UNL     1      80.197  58.035  67.123  1.00  0.00    -0.018 A 
ATOM     10  C   UNL     1      79.810  58.465  68.402  1.00  0.00     0.009 A 
ENDROOT
TORSDOF 0
ENDMDL
