MODEL 1
REMARK VINA RESULT:    -5.682      0.000      0.000
REMARK INTER + INTRA:          -7.051
REMARK INTER:                  -6.845
REMARK INTRA:                  -0.206
REMARK UNBOUND:                -0.206
REMARK SMILES OC[C@H]1O[C@H](O)[C@H](O)[C@@H](O)[C@@H]1O
REMARK SMILES IDX 3 1 4 2 5 3 7 4 9 5 11 6 2 7 1 8 12 10 6 12 10 14 8 16
REMARK H PARENT 1 9 12 11 6 13 10 15 8 17
ROOT
ATOM      1  C   UNL     1      65.563  65.914  86.382  1.00  0.00     0.178 C 
ATOM      2  O   UNL     1      64.970  67.201  86.111  1.00  0.00    -0.342 OA
ATOM      3  C   UNL     1      63.549  67.197  86.196  1.00  0.00     0.279 C 
ATOM      4  C   UNL     1      62.933  66.190  85.205  1.00  0.00     0.201 C 
ATOM      5  C   UNL     1      63.543  64.802  85.416  1.00  0.00     0.179 C 
ATOM      6  C   UNL     1      65.070  64.869  85.376  1.00  0.00     0.177 C 
ENDROOT
BRANCH   1   7
ATOM      7  C   UNL     1      67.084  66.090  86.304  1.00  0.00     0.191 C 
BRANCH   7   8
ATOM      8  O   UNL     1      67.512  66.006  84.942  1.00  0.00    -0.394 OA
ATOM      9  H   UNL     1      68.308  66.569  84.882  1.00  0.00     0.210 HD
ENDBRANCH   7   8
ENDBRANCH   1   7
BRANCH   6  10
ATOM     10  O   UNL     1      65.604  63.575  85.661  1.00  0.00    -0.387 OA
ATOM     11  H   UNL     1      65.329  63.009  84.911  1.00  0.00     0.211 HD
ENDBRANCH   6  10
BRANCH   3  12
ATOM     12  O   UNL     1      63.117  66.942  87.526  1.00  0.00    -0.366 OA
ATOM     13  H   UNL     1      62.427  67.598  87.735  1.00  0.00     0.213 HD
ENDBRANCH   3  12
BRANCH   5  14
ATOM     14  O   UNL     1      63.088  63.904  84.390  1.00  0.00    -0.387 OA
ATOM     15  H   UNL     1      62.891  63.063  84.850  1.00  0.00     0.211 HD
ENDBRANCH   5  14
BRANCH   4  16
ATOM     16  O   UNL     1      61.511  66.087  85.390  1.00  0.00    -0.385 OA
ATOM     17  H   UNL     1      61.090  66.370  84.557  1.00  0.00     0.211 HD
ENDBRANCH   4  16
TORSDOF 6
ENDMDL
MODEL 2
REMARK VINA RESULT:    -5.647      1.523      2.978
REMARK INTER + INTRA:          -7.008
REMARK INTER:                  -6.765
REMARK INTRA:                  -0.243
REMARK UNBOUND:                -0.206
REMARK SMILES OC[C@H]1O[C@H](O)[C@H](O)[C@@H](O)[C@@H]1O
REMARK SMILES IDX 3 1 4 2 5 3 7 4 9 5 11 6 2 7 1 8 12 10 6 12 10 14 8 16
REMARK H PARENT 1 9 12 11 6 13 10 15 8 17
ROOT
ATOM      1  C   UNL     1      65.259  66.105  86.894  1.00  0.00     0.178 C 
ATOM      2  O   UNL     1      64.872  64.809  87.396  1.00  0.00    -0.342 OA
ATOM      3  C   UNL     1      64.496  63.895  86.372  1.00  0.00     0.279 C 
ATOM      4  C   UNL     1      63.314  64.439  85.545  1.00  0.00     0.201 C 
ATOM      5  C   UNL     1      63.645  65.832  85.005  1.00  0.00     0.179 C 
ATOM      6  C   UNL     1      64.101  66.758  86.133  1.00  0.00     0.177 C 
ENDROOT
BRANCH   1   7
ATOM      7  C   UNL     1      65.682  66.951  88.100  1.00  0.00     0.191 C 
BRANCH   7   8
ATOM      8  O   UNL     1      66.476  68.057  87.661  1.00  0.00    -0.394 OA
ATOM      9  H   UNL     1      66.702  67.864  86.731  1.00  0.00     0.210 HD
ENDBRANCH   7   8
ENDBRANCH   1   7
BRANCH   6  10
ATOM     10  O   UNL     1      64.482  68.018  85.580  1.00  0.00    -0.387 OA
ATOM     11  H   UNL     1      65.066  67.804  84.824  1.00  0.00     0.211 HD
ENDBRANCH   6  10
BRANCH   3  12
ATOM     12  O   UNL     1      65.603  63.575  85.539  1.00  0.00    -0.366 OA
ATOM     13  H   UNL     1      65.546  62.624  85.338  1.00  0.00     0.213 HD
ENDBRANCH   3  12
BRANCH   5  14
ATOM     14  O   UNL     1      62.486  66.402  84.372  1.00  0.00    -0.387 OA
ATOM     15  H   UNL     1      62.802  66.739  83.509  1.00  0.00     0.211 HD
ENDBRANCH   5  14
BRANCH   4  16
ATOM     16  O   UNL     1      63.027  63.581  84.428  1.00  0.00    -0.385 OA
ATOM     17  H   UNL     1      62.143  63.822  84.096  1.00  0.00     0.211 HD
ENDBRANCH   4  16
TORSDOF 6
ENDMDL
MODEL 3
REMARK VINA RESULT:    -5.608      1.698      3.660
REMARK INTER + INTRA:          -6.962
REMARK INTER:                  -6.717
REMARK INTRA:                  -0.245
REMARK UNBOUND:                -0.206
REMARK SMILES OC[C@H]1O[C@H](O)[C@H](O)[C@@H](O)[C@@H]1O
REMARK SMILES IDX 3 1 4 2 5 3 7 4 9 5 11 6 2 7 1 8 12 10 6 12 10 14 8 16
REMARK H PARENT 1 9 12 11 6 13 10 15 8 17
ROOT
ATOM      1  C   UNL     1      63.628  66.054  87.673  1.00  0.00     0.178 C 
ATOM      2  O   UNL     1      64.776  66.875  87.968  1.00  0.00    -0.342 OA
ATOM      3  C   UNL     1      65.630  67.077  86.847  1.00  0.00     0.279 C 
ATOM      4  C   UNL     1      66.153  65.737  86.295  1.00  0.00     0.201 C 
ATOM      5  C   UNL     1      64.984  64.800  85.988  1.00  0.00     0.179 C 
ATOM      6  C   UNL     1      64.064  64.663  87.202  1.00  0.00     0.177 C 
ENDROOT
BRANCH   1   7
ATOM      7  C   UNL     1      62.788  65.972  88.952  1.00  0.00     0.191 C 
BRANCH   7   8
ATOM      8  O   UNL     1      61.430  65.665  88.622  1.00  0.00    -0.394 OA
ATOM      9  H   UNL     1      61.387  65.685  87.646  1.00  0.00     0.210 HD
ENDBRANCH   7   8
ENDBRANCH   1   7
BRANCH   6  10
ATOM     10  O   UNL     1      62.942  63.852  86.852  1.00  0.00    -0.387 OA
ATOM     11  H   UNL     1      62.918  63.851  85.873  1.00  0.00     0.211 HD
ENDBRANCH   6  10
BRANCH   3  12
ATOM     12  O   UNL     1      64.975  67.831  85.835  1.00  0.00    -0.366 OA
ATOM     13  H   UNL     1      65.643  68.417  85.435  1.00  0.00     0.213 HD
ENDBRANCH   3  12
BRANCH   5  14
ATOM     14  O   UNL     1      65.477  63.499  85.626  1.00  0.00    -0.387 OA
ATOM     15  H   UNL     1      66.252  63.346  86.204  1.00  0.00     0.211 HD
ENDBRANCH   5  14
BRANCH   4  16
ATOM     16  O   UNL     1      66.900  65.934  85.082  1.00  0.00    -0.385 OA
ATOM     17  H   UNL     1      67.575  66.615  85.265  1.00  0.00     0.211 HD
ENDBRANCH   4  16
TORSDOF 6
ENDMDL
MODEL 4
REMARK VINA RESULT:    -5.544      1.935      3.689
REMARK INTER + INTRA:          -6.884
REMARK INTER:                  -6.635
REMARK INTRA:                  -0.249
REMARK UNBOUND:                -0.206
REMARK SMILES OC[C@H]1O[C@H](O)[C@H](O)[C@@H](O)[C@@H]1O
REMARK SMILES IDX 3 1 4 2 5 3 7 4 9 5 11 6 2 7 1 8 12 10 6 12 10 14 8 16
REMARK H PARENT 1 9 12 11 6 13 10 15 8 17
ROOT
ATOM      1  C   UNL     1      63.656  64.387  85.499  1.00  0.00     0.178 C 
ATOM      2  O   UNL     1      62.483  64.562  84.677  1.00  0.00    -0.342 OA
ATOM      3  C   UNL     1      62.694  65.431  83.570  1.00  0.00     0.279 C 
ATOM      4  C   UNL     1      63.142  66.830  84.035  1.00  0.00     0.201 C 
ATOM      5  C   UNL     1      64.370  66.717  84.941  1.00  0.00     0.179 C 
ATOM      6  C   UNL     1      64.115  65.728  86.080  1.00  0.00     0.177 C 
ENDROOT
BRANCH   1   7
ATOM      7  C   UNL     1      63.288  63.395  86.609  1.00  0.00     0.191 C 
BRANCH   7   8
ATOM      8  O   UNL     1      62.844  64.107  87.767  1.00  0.00    -0.394 OA
ATOM      9  H   UNL     1      62.319  63.465  88.284  1.00  0.00     0.210 HD
ENDBRANCH   7   8
ENDBRANCH   1   7
BRANCH   6  10
ATOM     10  O   UNL     1      65.307  65.584  86.852  1.00  0.00    -0.387 OA
ATOM     11  H   UNL     1      65.479  64.620  86.887  1.00  0.00     0.211 HD
ENDBRANCH   6  10
BRANCH   3  12
ATOM     12  O   UNL     1      63.623  64.871  82.650  1.00  0.00    -0.366 OA
ATOM     13  H   UNL     1      64.323  65.534  82.509  1.00  0.00     0.213 HD
ENDBRANCH   3  12
BRANCH   5  14
ATOM     14  O   UNL     1      64.689  68.002  85.501  1.00  0.00    -0.387 OA
ATOM     15  H   UNL     1      65.415  67.836  86.135  1.00  0.00     0.211 HD
ENDBRANCH   5  14
BRANCH   4  16
ATOM     16  O   UNL     1      63.488  67.661  82.913  1.00  0.00    -0.385 OA
ATOM     17  H   UNL     1      64.057  67.131  82.325  1.00  0.00     0.211 HD
ENDBRANCH   4  16
TORSDOF 6
ENDMDL
MODEL 5
REMARK VINA RESULT:    -5.521      1.604      3.399
REMARK INTER + INTRA:          -6.858
REMARK INTER:                  -6.825
REMARK INTRA:                  -0.033
REMARK UNBOUND:                -0.206
REMARK SMILES OC[C@H]1O[C@H](O)[C@H](O)[C@@H](O)[C@@H]1O
REMARK SMILES IDX 3 1 4 2 5 3 7 4 9 5 11 6 2 7 1 8 12 10 6 12 10 14 8 16
REMARK H PARENT 1 9 12 11 6 13 10 15 8 17
ROOT
ATOM      1  C   UNL     1      63.702  66.593  84.391  1.00  0.00     0.178 C 
ATOM      2  O   UNL     1      64.456  67.059  85.529  1.00  0.00    -0.342 OA
ATOM      3  C   UNL     1      65.329  66.074  86.071  1.00  0.00     0.279 C 
ATOM      4  C   UNL     1      64.550  64.821  86.516  1.00  0.00     0.201 C 
ATOM      5  C   UNL     1      63.700  64.289  85.361  1.00  0.00     0.179 C 
ATOM      6  C   UNL     1      62.825  65.398  84.775  1.00  0.00     0.177 C 
ENDROOT
BRANCH   1   7
ATOM      7  C   UNL     1      62.855  67.771  83.895  1.00  0.00     0.191 C 
BRANCH   7   8
ATOM      8  O   UNL     1      63.608  68.551  82.963  1.00  0.00    -0.394 OA
ATOM      9  H   UNL     1      64.428  68.044  82.799  1.00  0.00     0.210 HD
ENDBRANCH   7   8
ENDBRANCH   1   7
BRANCH   6  10
ATOM     10  O   UNL     1      62.113  64.887  83.648  1.00  0.00    -0.387 OA
ATOM     11  H   UNL     1      62.647  64.134  83.322  1.00  0.00     0.211 HD
ENDBRANCH   6  10
BRANCH   3  12
ATOM     12  O   UNL     1      66.357  65.740  85.147  1.00  0.00    -0.366 OA
ATOM     13  H   UNL     1      66.785  66.573  84.879  1.00  0.00     0.213 HD
ENDBRANCH   3  12
BRANCH   5  14
ATOM     14  O   UNL     1      62.855  63.221  85.822  1.00  0.00    -0.387 OA
ATOM     15  H   UNL     1      62.930  62.520  85.144  1.00  0.00     0.211 HD
ENDBRANCH   5  14
BRANCH   4  16
ATOM     16  O   UNL     1      65.446  63.777  86.932  1.00  0.00    -0.385 OA
ATOM     17  H   UNL     1      66.131  64.188  87.492  1.00  0.00     0.211 HD
ENDBRANCH   4  16
TORSDOF 6
ENDMDL
MODEL 6
REMARK VINA RESULT:    -5.385      1.896      3.990
REMARK INTER + INTRA:          -6.693
REMARK INTER:                  -6.627
REMARK INTRA:                  -0.066
REMARK UNBOUND:                -0.206
REMARK SMILES OC[C@H]1O[C@H](O)[C@H](O)[C@@H](O)[C@@H]1O
REMARK SMILES IDX 3 1 4 2 5 3 7 4 9 5 11 6 2 7 1 8 12 10 6 12 10 14 8 16
REMARK H PARENT 1 9 12 11 6 13 10 15 8 17
ROOT
ATOM      1  C   UNL     1      62.864  65.219  83.921  1.00  0.00     0.178 C 
ATOM      2  O   UNL     1      63.828  64.316  84.503  1.00  0.00    -0.342 OA
ATOM      3  C   UNL     1      64.217  64.679  85.823  1.00  0.00     0.279 C 
ATOM      4  C   UNL     1      64.832  66.092  85.857  1.00  0.00     0.201 C 
ATOM      5  C   UNL     1      63.872  67.100  85.224  1.00  0.00     0.179 C 
ATOM      6  C   UNL     1      63.437  66.637  83.833  1.00  0.00     0.177 C 
ENDROOT
BRANCH   1   7
ATOM      7  C   UNL     1      62.510  64.673  82.533  1.00  0.00     0.191 C 
BRANCH   7   8
ATOM      8  O   UNL     1      63.689  64.599  81.727  1.00  0.00    -0.394 OA
ATOM      9  H   UNL     1      63.398  64.810  80.818  1.00  0.00     0.210 HD
ENDBRANCH   7   8
ENDBRANCH   1   7
BRANCH   6  10
ATOM     10  O   UNL     1      62.477  67.557  83.310  1.00  0.00    -0.387 OA
ATOM     11  H   UNL     1      62.892  67.938  82.509  1.00  0.00     0.211 HD
ENDBRANCH   6  10
BRANCH   3  12
ATOM     12  O   UNL     1      63.123  64.571  86.726  1.00  0.00    -0.366 OA
ATOM     13  H   UNL     1      62.955  65.463  87.081  1.00  0.00     0.213 HD
ENDBRANCH   3  12
BRANCH   5  14
ATOM     14  O   UNL     1      64.510  68.383  85.110  1.00  0.00    -0.387 OA
ATOM     15  H   UNL     1      64.620  68.535  84.150  1.00  0.00     0.211 HD
ENDBRANCH   5  14
BRANCH   4  16
ATOM     16  O   UNL     1      65.094  66.508  87.207  1.00  0.00    -0.385 OA
ATOM     17  H   UNL     1      64.523  65.975  87.791  1.00  0.00     0.211 HD
ENDBRANCH   4  16
TORSDOF 6
ENDMDL
MODEL 7
REMARK VINA RESULT:    -5.364      2.105      3.364
REMARK INTER + INTRA:          -6.668
REMARK INTER:                  -6.430
REMARK INTRA:                  -0.238
REMARK UNBOUND:                -0.206
REMARK SMILES OC[C@H]1O[C@H](O)[C@H](O)[C@@H](O)[C@@H]1O
REMARK SMILES IDX 3 1 4 2 5 3 7 4 9 5 11 6 2 7 1 8 12 10 6 12 10 14 8 16
REMARK H PARENT 1 9 12 11 6 13 10 15 8 17
ROOT
ATOM      1  C   UNL     1      63.867  65.687  87.664  1.00  0.00     0.178 C 
ATOM      2  O   UNL     1      64.599  65.557  86.427  1.00  0.00    -0.342 OA
ATOM      3  C   UNL     1      64.244  66.533  85.455  1.00  0.00     0.279 C 
ATOM      4  C   UNL     1      62.743  66.458  85.111  1.00  0.00     0.201 C 
ATOM      5  C   UNL     1      61.904  66.558  86.386  1.00  0.00     0.179 C 
ATOM      6  C   UNL     1      62.363  65.531  87.421  1.00  0.00     0.177 C 
ENDROOT
BRANCH   1   7
ATOM      7  C   UNL     1      64.393  64.608  88.618  1.00  0.00     0.191 C 
BRANCH   7   8
ATOM      8  O   UNL     1      63.987  64.906  89.957  1.00  0.00    -0.394 OA
ATOM      9  H   UNL     1      64.815  65.040  90.458  1.00  0.00     0.210 HD
ENDBRANCH   7   8
ENDBRANCH   1   7
BRANCH   6  10
ATOM     10  O   UNL     1      61.617  65.711  88.625  1.00  0.00    -0.387 OA
ATOM     11  H   UNL     1      61.607  64.833  89.059  1.00  0.00     0.211 HD
ENDBRANCH   6  10
BRANCH   3  12
ATOM     12  O   UNL     1      64.609  67.838  85.883  1.00  0.00    -0.366 OA
ATOM     13  H   UNL     1      63.787  68.306  86.115  1.00  0.00     0.213 HD
ENDBRANCH   3  12
BRANCH   5  14
ATOM     14  O   UNL     1      60.517  66.328  86.082  1.00  0.00    -0.387 OA
ATOM     15  H   UNL     1      60.317  66.913  85.324  1.00  0.00     0.211 HD
ENDBRANCH   5  14
BRANCH   4  16
ATOM     16  O   UNL     1      62.360  67.532  84.235  1.00  0.00    -0.385 OA
ATOM     17  H   UNL     1      63.153  68.080  84.085  1.00  0.00     0.211 HD
ENDBRANCH   4  16
TORSDOF 6
ENDMDL
MODEL 8
REMARK VINA RESULT:    -5.327      1.749      3.635
REMARK INTER + INTRA:          -6.623
REMARK INTER:                  -6.391
REMARK INTRA:                  -0.232
REMARK UNBOUND:                -0.206
REMARK SMILES OC[C@H]1O[C@H](O)[C@H](O)[C@@H](O)[C@@H]1O
REMARK SMILES IDX 3 1 4 2 5 3 7 4 9 5 11 6 2 7 1 8 12 10 6 12 10 14 8 16
REMARK H PARENT 1 9 12 11 6 13 10 15 8 17
ROOT
ATOM      1  C   UNL     1      64.046  64.861  86.880  1.00  0.00     0.178 C 
ATOM      2  O   UNL     1      64.250  65.326  88.230  1.00  0.00    -0.342 OA
ATOM      3  C   UNL     1      64.834  66.622  88.300  1.00  0.00     0.279 C 
ATOM      4  C   UNL     1      66.202  66.657  87.590  1.00  0.00     0.201 C 
ATOM      5  C   UNL     1      66.066  66.144  86.155  1.00  0.00     0.179 C 
ATOM      6  C   UNL     1      65.379  64.778  86.129  1.00  0.00     0.177 C 
ENDROOT
BRANCH   1   7
ATOM      7  C   UNL     1      63.370  63.488  86.969  1.00  0.00     0.191 C 
BRANCH   7   8
ATOM      8  O   UNL     1      62.858  63.116  85.687  1.00  0.00    -0.394 OA
ATOM      9  H   UNL     1      63.580  62.621  85.251  1.00  0.00     0.210 HD
ENDBRANCH   7   8
ENDBRANCH   1   7
BRANCH   6  10
ATOM     10  O   UNL     1      65.192  64.373  84.773  1.00  0.00    -0.387 OA
ATOM     11  H   UNL     1      64.983  65.194  84.282  1.00  0.00     0.211 HD
ENDBRANCH   6  10
BRANCH   3  12
ATOM     12  O   UNL     1      63.956  67.608  87.773  1.00  0.00    -0.366 OA
ATOM     13  H   UNL     1      63.162  67.144  87.451  1.00  0.00     0.213 HD
ENDBRANCH   3  12
BRANCH   5  14
ATOM     14  O   UNL     1      67.364  66.026  85.549  1.00  0.00    -0.387 OA
ATOM     15  H   UNL     1      67.229  66.237  84.603  1.00  0.00     0.211 HD
ENDBRANCH   5  14
BRANCH   4  16
ATOM     16  O   UNL     1      66.725  67.995  87.541  1.00  0.00    -0.385 OA
ATOM     17  H   UNL     1      67.659  67.952  87.816  1.00  0.00     0.211 HD
ENDBRANCH   4  16
TORSDOF 6
ENDMDL
MODEL 9
REMARK VINA RESULT:    -5.310      1.873      2.349
REMARK INTER + INTRA:          -6.603
REMARK INTER:                  -6.358
REMARK INTRA:                  -0.245
REMARK UNBOUND:                -0.206
REMARK SMILES OC[C@H]1O[C@H](O)[C@H](O)[C@@H](O)[C@@H]1O
REMARK SMILES IDX 3 1 4 2 5 3 7 4 9 5 11 6 2 7 1 8 12 10 6 12 10 14 8 16
REMARK H PARENT 1 9 12 11 6 13 10 15 8 17
ROOT
ATOM      1  C   UNL     1      65.051  65.877  86.751  1.00  0.00     0.178 C 
ATOM      2  O   UNL     1      64.848  66.314  88.111  1.00  0.00    -0.342 OA
ATOM      3  C   UNL     1      63.680  65.767  88.712  1.00  0.00     0.279 C 
ATOM      4  C   UNL     1      62.414  66.141  87.915  1.00  0.00     0.201 C 
ATOM      5  C   UNL     1      62.573  65.732  86.450  1.00  0.00     0.179 C 
ATOM      6  C   UNL     1      63.871  66.294  85.867  1.00  0.00     0.177 C 
ENDROOT
BRANCH   1   7
ATOM      7  C   UNL     1      66.362  66.504  86.263  1.00  0.00     0.191 C 
BRANCH   7   8
ATOM      8  O   UNL     1      66.886  65.743  85.171  1.00  0.00    -0.394 OA
ATOM      9  H   UNL     1      66.125  65.250  84.807  1.00  0.00     0.210 HD
ENDBRANCH   7   8
ENDBRANCH   1   7
BRANCH   6  10
ATOM     10  O   UNL     1      64.027  65.821  84.528  1.00  0.00    -0.387 OA
ATOM     11  H   UNL     1      63.194  65.350  84.320  1.00  0.00     0.211 HD
ENDBRANCH   6  10
BRANCH   3  12
ATOM     12  O   UNL     1      63.795  64.358  88.865  1.00  0.00    -0.366 OA
ATOM     13  H   UNL     1      64.523  64.195  89.491  1.00  0.00     0.213 HD
ENDBRANCH   3  12
BRANCH   5  14
ATOM     14  O   UNL     1      61.464  66.224  85.678  1.00  0.00    -0.387 OA
ATOM     15  H   UNL     1      61.790  66.274  84.757  1.00  0.00     0.211 HD
ENDBRANCH   5  14
BRANCH   4  16
ATOM     16  O   UNL     1      61.255  65.474  88.444  1.00  0.00    -0.385 OA
ATOM     17  H   UNL     1      60.475  65.851  87.997  1.00  0.00     0.211 HD
ENDBRANCH   4  16
TORSDOF 6
ENDMDL
