MODEL 1
REMARK VINA RESULT:    -7.909      0.000      0.000
REMARK INTER + INTRA:          -7.909
REMARK INTER:                  -7.909
REMARK INTRA:                   0.000
REMARK UNBOUND:                 0.000
REMARK SMILES c1ccc2cc3ccccc3cc2c1
REMARK SMILES IDX 2 1 1 2 14 3 13 4 12 5 11 6 10 7 9 8 8 9 7 10 6 11 5 12 4 13
REMARK SMILES IDX 3 14
REMARK H PARENT
ROOT
ATOM      1  C   UNL     1      63.610  66.357  88.341  1.00  0.00     0.001 A 
ATOM      2  C   UNL     1      63.362  64.990  88.268  1.00  0.00     0.001 A 
ATOM      3  C   UNL     1      63.146  64.386  87.028  1.00  0.00     0.009 A 
ATOM      4  C   UNL     1      63.174  65.144  85.845  1.00  0.00    -0.018 A 
ATOM      5  C   UNL     1      62.958  64.551  84.590  1.00  0.00     0.017 A 
ATOM      6  C   UNL     1      62.987  65.309  83.408  1.00  0.00    -0.018 A 
ATOM      7  C   UNL     1      62.771  64.716  82.152  1.00  0.00     0.009 A 
ATOM      8  C   UNL     1      62.803  65.483  80.985  1.00  0.00     0.001 A 
ATOM      9  C   UNL     1      63.050  66.849  81.059  1.00  0.00     0.001 A 
ATOM     10  C   UNL     1      63.267  67.453  82.298  1.00  0.00     0.009 A 
ATOM     11  C   UNL     1      63.239  66.696  83.482  1.00  0.00    -0.018 A 
ATOM     12  C   UNL     1      63.454  67.288  84.737  1.00  0.00     0.017 A 
ATOM     13  C   UNL     1      63.426  66.530  85.919  1.00  0.00    -0.018 A 
ATOM     14  C   UNL     1      63.641  67.124  87.174  1.00  0.00     0.009 A 
ENDROOT
TORSDOF 0
ENDMDL
MODEL 5
REMARK VINA RESULT:    -7.104     10.017     12.676
REMARK INTER + INTRA:          -7.104
REMARK INTER:                  -7.104
REMARK INTRA:                   0.000
REMARK UNBOUND:                 0.000
REMARK SMILES c1ccc2cc3ccccc3cc2c1
REMARK SMILES IDX 2 1 1 2 14 3 13 4 12 5 11 6 10 7 9 8 8 9 7 10 6 11 5 12 4 13
REMARK SMILES IDX 3 14
REMARK H PARENT
ROOT
ATOM      1  C   UNL     1      61.897  72.388  89.587  1.00  0.00     0.001 A 
ATOM      2  C   UNL     1      62.939  73.258  89.886  1.00  0.00     0.001 A 
ATOM      3  C   UNL     1      62.703  74.382  90.679  1.00  0.00     0.009 A 
ATOM      4  C   UNL     1      61.419  74.650  91.183  1.00  0.00    -0.018 A 
ATOM      5  C   UNL     1      61.165  75.776  91.983  1.00  0.00     0.017 A 
ATOM      6  C   UNL     1      59.881  76.042  92.487  1.00  0.00    -0.018 A 
ATOM      7  C   UNL     1      59.628  77.169  93.287  1.00  0.00     0.009 A 
ATOM      8  C   UNL     1      58.346  77.421  93.780  1.00  0.00     0.001 A 
ATOM      9  C   UNL     1      57.303  76.550  93.480  1.00  0.00     0.001 A 
ATOM     10  C   UNL     1      57.539  75.426  92.687  1.00  0.00     0.009 A 
ATOM     11  C   UNL     1      58.823  75.159  92.184  1.00  0.00    -0.018 A 
ATOM     12  C   UNL     1      59.077  74.032  91.384  1.00  0.00     0.017 A 
ATOM     13  C   UNL     1      60.361  73.766  90.880  1.00  0.00    -0.018 A 
ATOM     14  C   UNL     1      60.614  72.639  90.080  1.00  0.00     0.009 A 
ENDROOT
TORSDOF 0
ENDMDL
MODEL 9
REMARK VINA RESULT:    -6.773      9.582     11.912
REMARK INTER + INTRA:          -6.773
REMARK INTER:                  -6.773
REMARK INTRA:                   0.000
REMARK UNBOUND:                 0.000
REMARK SMILES c1ccc2cc3ccccc3cc2c1
REMARK SMILES IDX 2 1 1 2 14 3 13 4 12 5 11 6 10 7 9 8 8 9 7 10 6 11 5 12 4 13
REMARK SMILES IDX 3 14
REMARK H PARENT
ROOT
ATOM      1  C   UNL     1      57.633  76.088  94.027  1.00  0.00     0.001 A 
ATOM      2  C   UNL     1      57.028  76.113  92.775  1.00  0.00     0.001 A 
ATOM      3  C   UNL     1      57.637  75.475  91.693  1.00  0.00     0.009 A 
ATOM      4  C   UNL     1      58.860  74.801  91.852  1.00  0.00    -0.018 A 
ATOM      5  C   UNL     1      59.486  74.153  90.774  1.00  0.00     0.017 A 
ATOM      6  C   UNL     1      60.708  73.480  90.934  1.00  0.00    -0.018 A 
ATOM      7  C   UNL     1      61.334  72.832  89.855  1.00  0.00     0.009 A 
ATOM      8  C   UNL     1      62.549  72.167  90.029  1.00  0.00     0.001 A 
ATOM      9  C   UNL     1      63.153  72.141  91.282  1.00  0.00     0.001 A 
ATOM     10  C   UNL     1      62.544  72.780  92.363  1.00  0.00     0.009 A 
ATOM     11  C   UNL     1      61.321  73.453  92.205  1.00  0.00    -0.018 A 
ATOM     12  C   UNL     1      60.696  74.101  93.282  1.00  0.00     0.017 A 
ATOM     13  C   UNL     1      59.473  74.774  93.123  1.00  0.00    -0.018 A 
ATOM     14  C   UNL     1      58.848  75.422  94.201  1.00  0.00     0.009 A 
ENDROOT
TORSDOF 0
ENDMDL
