MODEL 1
REMARK VINA RESULT:    -8.595      0.000      0.000
REMARK INTER + INTRA:          -8.595
REMARK INTER:                  -8.595
REMARK INTRA:                   0.000
REMARK UNBOUND:                 0.000
REMARK SMILES c1ccc2c(c1)cc1ccc3cccc4ccc2c1c34
REMARK SMILES IDX 1 1 2 2 3 3 4 4 5 5 6 6 7 7 8 8 9 9 10 10 11 11 12 12 13 13
REMARK SMILES IDX 14 14 15 15 16 16 17 17 18 18 19 19 20 20
REMARK H PARENT
ROOT
ATOM      1  C   UNL     1      57.212  76.234  92.671  1.00  0.00     0.001 A 
ATOM      2  C   UNL     1      57.732  76.128  93.951  1.00  0.00     0.001 A 
ATOM      3  C   UNL     1      58.848  75.319  94.184  1.00  0.00     0.009 A 
ATOM      4  C   UNL     1      59.486  74.587  93.149  1.00  0.00    -0.010 A 
ATOM      5  C   UNL     1      58.933  74.714  91.850  1.00  0.00    -0.017 A 
ATOM      6  C   UNL     1      57.809  75.531  91.628  1.00  0.00     0.009 A 
ATOM      7  C   UNL     1      59.503  74.024  90.776  1.00  0.00     0.017 A 
ATOM      8  C   UNL     1      60.619  73.201  90.946  1.00  0.00    -0.016 A 
ATOM      9  C   UNL     1      61.172  72.521  89.852  1.00  0.00     0.009 A 
ATOM     10  C   UNL     1      62.285  71.696  90.008  1.00  0.00     0.009 A 
ATOM     11  C   UNL     1      62.874  71.532  91.264  1.00  0.00    -0.017 A 
ATOM     12  C   UNL     1      63.995  70.705  91.433  1.00  0.00     0.009 A 
ATOM     13  C   UNL     1      64.577  70.547  92.688  1.00  0.00     0.001 A 
ATOM     14  C   UNL     1      64.045  71.212  93.791  1.00  0.00     0.009 A 
ATOM     15  C   UNL     1      62.925  72.045  93.649  1.00  0.00    -0.017 A 
ATOM     16  C   UNL     1      62.383  72.717  94.744  1.00  0.00     0.009 A 
ATOM     17  C   UNL     1      61.267  73.544  94.591  1.00  0.00     0.010 A 
ATOM     18  C   UNL     1      60.636  73.742  93.340  1.00  0.00    -0.009 A 
ATOM     19  C   UNL     1      61.192  73.056  92.228  1.00  0.00    -0.002 A 
ATOM     20  C   UNL     1      62.329  72.212  92.381  1.00  0.00    -0.003 A 
ENDROOT
TORSDOF 0
ENDMDL
MODEL 2
REMARK VINA RESULT:    -8.540      0.957      5.574
REMARK INTER + INTRA:          -8.540
REMARK INTER:                  -8.540
REMARK INTRA:                   0.000
REMARK UNBOUND:                 0.000
REMARK SMILES c1ccc2c(c1)cc1ccc3cccc4ccc2c1c34
REMARK SMILES IDX 1 1 2 2 3 3 4 4 5 5 6 6 7 7 8 8 9 9 10 10 11 11 12 12 13 13
REMARK SMILES IDX 14 14 15 15 16 16 17 17 18 18 19 19 20 20
REMARK H PARENT
ROOT
ATOM      1  C   UNL     1      65.000  69.249  91.770  1.00  0.00     0.001 A 
ATOM      2  C   UNL     1      64.893  69.728  93.065  1.00  0.00     0.001 A 
ATOM      3  C   UNL     1      63.975  70.742  93.360  1.00  0.00     0.009 A 
ATOM      4  C   UNL     1      63.131  71.313  92.371  1.00  0.00    -0.010 A 
ATOM      5  C   UNL     1      63.263  70.803  91.056  1.00  0.00    -0.017 A 
ATOM      6  C   UNL     1      64.190  69.784  90.772  1.00  0.00     0.009 A 
ATOM      7  C   UNL     1      62.467  71.315  90.026  1.00  0.00     0.017 A 
ATOM      8  C   UNL     1      61.532  72.326  90.257  1.00  0.00    -0.016 A 
ATOM      9  C   UNL     1      60.747  72.820  89.205  1.00  0.00     0.009 A 
ATOM     10  C   UNL     1      59.811  73.830  89.423  1.00  0.00     0.009 A 
ATOM     11  C   UNL     1      59.637  74.372  90.700  1.00  0.00    -0.017 A 
ATOM     12  C   UNL     1      58.698  75.388  90.931  1.00  0.00     0.009 A 
ATOM     13  C   UNL     1      58.530  75.923  92.205  1.00  0.00     0.001 A 
ATOM     14  C   UNL     1      59.300  75.448  93.266  1.00  0.00     0.009 A 
ATOM     15  C   UNL     1      60.245  74.432  93.062  1.00  0.00    -0.017 A 
ATOM     16  C   UNL     1      61.022  73.948  94.114  1.00  0.00     0.009 A 
ATOM     17  C   UNL     1      61.961  72.936  93.900  1.00  0.00     0.010 A 
ATOM     18  C   UNL     1      62.173  72.356  92.626  1.00  0.00    -0.009 A 
ATOM     19  C   UNL     1      61.380  72.853  91.558  1.00  0.00    -0.002 A 
ATOM     20  C   UNL     1      60.422  73.884  91.773  1.00  0.00    -0.003 A 
ENDROOT
TORSDOF 0
ENDMDL
MODEL 3
REMARK VINA RESULT:    -8.483      1.071      2.890
REMARK INTER + INTRA:          -8.483
REMARK INTER:                  -8.483
REMARK INTRA:                   0.000
REMARK UNBOUND:                 0.000
REMARK SMILES c1ccc2c(c1)cc1ccc3cccc4ccc2c1c34
REMARK SMILES IDX 1 1 2 2 3 3 4 4 5 5 6 6 7 7 8 8 9 9 10 10 11 11 12 12 13 13
REMARK SMILES IDX 14 14 15 15 16 16 17 17 18 18 19 19 20 20
REMARK H PARENT
ROOT
ATOM      1  C   UNL     1      58.141  76.844  93.104  1.00  0.00     0.001 A 
ATOM      2  C   UNL     1      57.670  76.145  92.004  1.00  0.00     0.001 A 
ATOM      3  C   UNL     1      58.330  74.987  91.580  1.00  0.00     0.009 A 
ATOM      4  C   UNL     1      59.483  74.485  92.239  1.00  0.00    -0.010 A 
ATOM      5  C   UNL     1      59.941  75.220  93.361  1.00  0.00    -0.017 A 
ATOM      6  C   UNL     1      59.269  76.384  93.777  1.00  0.00     0.009 A 
ATOM      7  C   UNL     1      61.071  74.791  94.064  1.00  0.00     0.017 A 
ATOM      8  C   UNL     1      61.772  73.642  93.690  1.00  0.00    -0.016 A 
ATOM      9  C   UNL     1      62.902  73.234  94.413  1.00  0.00     0.009 A 
ATOM     10  C   UNL     1      63.611  72.090  94.049  1.00  0.00     0.009 A 
ATOM     11  C   UNL     1      63.206  71.324  92.952  1.00  0.00    -0.017 A 
ATOM     12  C   UNL     1      63.911  70.171  92.578  1.00  0.00     0.009 A 
ATOM     13  C   UNL     1      63.502  69.413  91.484  1.00  0.00     0.001 A 
ATOM     14  C   UNL     1      62.382  69.800  90.750  1.00  0.00     0.009 A 
ATOM     15  C   UNL     1      61.659  70.948  91.103  1.00  0.00    -0.017 A 
ATOM     16  C   UNL     1      60.537  71.346  90.377  1.00  0.00     0.009 A 
ATOM     17  C   UNL     1      59.825  72.493  90.739  1.00  0.00     0.010 A 
ATOM     18  C   UNL     1      60.195  73.300  91.840  1.00  0.00    -0.009 A 
ATOM     19  C   UNL     1      61.338  72.890  92.577  1.00  0.00    -0.002 A 
ATOM     20  C   UNL     1      62.067  71.722  92.211  1.00  0.00    -0.003 A 
ENDROOT
TORSDOF 0
ENDMDL
MODEL 4
REMARK VINA RESULT:    -8.448      1.863      6.173
REMARK INTER + INTRA:          -8.448
REMARK INTER:                  -8.448
REMARK INTRA:                   0.000
REMARK UNBOUND:                 0.000
REMARK SMILES c1ccc2c(c1)cc1ccc3cccc4ccc2c1c34
REMARK SMILES IDX 1 1 2 2 3 3 4 4 5 5 6 6 7 7 8 8 9 9 10 10 11 11 12 12 13 13
REMARK SMILES IDX 14 14 15 15 16 16 17 17 18 18 19 19 20 20
REMARK H PARENT
ROOT
ATOM      1  C   UNL     1      63.964  67.922  91.898  1.00  0.00     0.001 A 
ATOM      2  C   UNL     1      62.903  67.862  91.009  1.00  0.00     0.001 A 
ATOM      3  C   UNL     1      62.142  69.007  90.753  1.00  0.00     0.009 A 
ATOM      4  C   UNL     1      62.415  70.254  91.374  1.00  0.00    -0.010 A 
ATOM      5  C   UNL     1      63.506  70.286  92.278  1.00  0.00    -0.017 A 
ATOM      6  C   UNL     1      64.262  69.127  92.528  1.00  0.00     0.009 A 
ATOM      7  C   UNL     1      63.837  71.477  92.932  1.00  0.00     0.017 A 
ATOM      8  C   UNL     1      63.116  72.654  92.717  1.00  0.00    -0.016 A 
ATOM      9  C   UNL     1      63.471  73.834  93.386  1.00  0.00     0.009 A 
ATOM     10  C   UNL     1      62.759  75.016  93.181  1.00  0.00     0.009 A 
ATOM     11  C   UNL     1      61.674  75.045  92.300  1.00  0.00    -0.017 A 
ATOM     12  C   UNL     1      60.951  76.228  92.086  1.00  0.00     0.009 A 
ATOM     13  C   UNL     1      59.870  76.250  91.208  1.00  0.00     0.001 A 
ATOM     14  C   UNL     1      59.499  75.088  90.533  1.00  0.00     0.009 A 
ATOM     15  C   UNL     1      60.206  73.893  90.729  1.00  0.00    -0.017 A 
ATOM     16  C   UNL     1      59.845  72.724  90.060  1.00  0.00     0.009 A 
ATOM     17  C   UNL     1      60.556  71.538  90.263  1.00  0.00     0.010 A 
ATOM     18  C   UNL     1      61.661  71.458  91.143  1.00  0.00    -0.009 A 
ATOM     19  C   UNL     1      62.025  72.651  91.822  1.00  0.00    -0.002 A 
ATOM     20  C   UNL     1      61.302  73.862  91.617  1.00  0.00    -0.003 A 
ENDROOT
TORSDOF 0
ENDMDL
MODEL 5
REMARK VINA RESULT:    -8.425      2.466      2.604
REMARK INTER + INTRA:          -8.425
REMARK INTER:                  -8.425
REMARK INTRA:                   0.000
REMARK UNBOUND:                 0.000
REMARK SMILES c1ccc2c(c1)cc1ccc3cccc4ccc2c1c34
REMARK SMILES IDX 1 1 2 2 3 3 4 4 5 5 6 6 7 7 8 8 9 9 10 10 11 11 12 12 13 13
REMARK SMILES IDX 14 14 15 15 16 16 17 17 18 18 19 19 20 20
REMARK H PARENT
ROOT
ATOM      1  C   UNL     1      57.095  76.240  93.271  1.00  0.00     0.001 A 
ATOM      2  C   UNL     1      57.980  77.025  93.992  1.00  0.00     0.001 A 
ATOM      3  C   UNL     1      59.356  76.906  93.772  1.00  0.00     0.009 A 
ATOM      4  C   UNL     1      59.898  76.000  92.823  1.00  0.00    -0.010 A 
ATOM      5  C   UNL     1      58.969  75.211  92.100  1.00  0.00    -0.017 A 
ATOM      6  C   UNL     1      57.588  75.339  92.331  1.00  0.00     0.009 A 
ATOM      7  C   UNL     1      59.424  74.294  91.148  1.00  0.00     0.017 A 
ATOM      8  C   UNL     1      60.786  74.130  90.882  1.00  0.00    -0.016 A 
ATOM      9  C   UNL     1      61.215  73.203  89.921  1.00  0.00     0.009 A 
ATOM     10  C   UNL     1      62.571  73.030  89.647  1.00  0.00     0.009 A 
ATOM     11  C   UNL     1      63.533  73.781  90.329  1.00  0.00    -0.017 A 
ATOM     12  C   UNL     1      64.900  73.615  90.061  1.00  0.00     0.009 A 
ATOM     13  C   UNL     1      65.853  74.366  90.744  1.00  0.00     0.001 A 
ATOM     14  C   UNL     1      65.450  75.293  91.704  1.00  0.00     0.009 A 
ATOM     15  C   UNL     1      64.090  75.479  91.990  1.00  0.00    -0.017 A 
ATOM     16  C   UNL     1      63.673  76.402  92.948  1.00  0.00     0.009 A 
ATOM     17  C   UNL     1      62.315  76.578  93.225  1.00  0.00     0.010 A 
ATOM     18  C   UNL     1      61.304  75.843  92.562  1.00  0.00    -0.009 A 
ATOM     19  C   UNL     1      61.733  74.903  91.587  1.00  0.00    -0.002 A 
ATOM     20  C   UNL     1      63.117  74.721  91.303  1.00  0.00    -0.003 A 
ENDROOT
TORSDOF 0
ENDMDL
MODEL 6
REMARK VINA RESULT:    -8.411      1.248      1.876
REMARK INTER + INTRA:          -8.411
REMARK INTER:                  -8.411
REMARK INTRA:                   0.000
REMARK UNBOUND:                 0.000
REMARK SMILES c1ccc2c(c1)cc1ccc3cccc4ccc2c1c34
REMARK SMILES IDX 1 1 2 2 3 3 4 4 5 5 6 6 7 7 8 8 9 9 10 10 11 11 12 12 13 13
REMARK SMILES IDX 14 14 15 15 16 16 17 17 18 18 19 19 20 20
REMARK H PARENT
ROOT
ATOM      1  C   UNL     1      58.760  75.521  91.754  1.00  0.00     0.001 A 
ATOM      2  C   UNL     1      59.491  75.972  92.841  1.00  0.00     0.001 A 
ATOM      3  C   UNL     1      60.567  75.217  93.319  1.00  0.00     0.009 A 
ATOM      4  C   UNL     1      60.951  73.985  92.728  1.00  0.00    -0.010 A 
ATOM      5  C   UNL     1      60.186  73.549  91.618  1.00  0.00    -0.017 A 
ATOM      6  C   UNL     1      59.106  74.317  91.148  1.00  0.00     0.009 A 
ATOM      7  C   UNL     1      60.501  72.344  90.982  1.00  0.00     0.017 A 
ATOM      8  C   UNL     1      61.564  71.546  91.412  1.00  0.00    -0.016 A 
ATOM      9  C   UNL     1      61.858  70.343  90.755  1.00  0.00     0.009 A 
ATOM     10  C   UNL     1      62.916  69.537  91.174  1.00  0.00     0.009 A 
ATOM     11  C   UNL     1      63.706  69.916  92.263  1.00  0.00    -0.017 A 
ATOM     12  C   UNL     1      64.773  69.113  92.694  1.00  0.00     0.009 A 
ATOM     13  C   UNL     1      65.556  69.497  93.779  1.00  0.00     0.001 A 
ATOM     14  C   UNL     1      65.282  70.688  94.448  1.00  0.00     0.009 A 
ATOM     15  C   UNL     1      64.222  71.509  94.038  1.00  0.00    -0.017 A 
ATOM     16  C   UNL     1      63.937  72.704  94.698  1.00  0.00     0.009 A 
ATOM     17  C   UNL     1      62.877  73.514  94.280  1.00  0.00     0.010 A 
ATOM     18  C   UNL     1      62.049  73.174  93.184  1.00  0.00    -0.009 A 
ATOM     19  C   UNL     1      62.344  71.956  92.514  1.00  0.00    -0.002 A 
ATOM     20  C   UNL     1      63.423  71.128  92.938  1.00  0.00    -0.003 A 
ENDROOT
TORSDOF 0
ENDMDL
MODEL 7
REMARK VINA RESULT:    -8.236      2.713      3.784
REMARK INTER + INTRA:          -8.236
REMARK INTER:                  -8.236
REMARK INTRA:                   0.000
REMARK UNBOUND:                 0.000
REMARK SMILES c1ccc2c(c1)cc1ccc3cccc4ccc2c1c34
REMARK SMILES IDX 1 1 2 2 3 3 4 4 5 5 6 6 7 7 8 8 9 9 10 10 11 11 12 12 13 13
REMARK SMILES IDX 14 14 15 15 16 16 17 17 18 18 19 19 20 20
REMARK H PARENT
ROOT
ATOM      1  C   UNL     1      57.246  76.450  93.445  1.00  0.00     0.001 A 
ATOM      2  C   UNL     1      57.127  75.495  92.448  1.00  0.00     0.001 A 
ATOM      3  C   UNL     1      58.273  74.989  91.827  1.00  0.00     0.009 A 
ATOM      4  C   UNL     1      59.580  75.417  92.181  1.00  0.00    -0.010 A 
ATOM      5  C   UNL     1      59.671  76.393  93.204  1.00  0.00    -0.017 A 
ATOM      6  C   UNL     1      58.511  76.895  93.820  1.00  0.00     0.009 A 
ATOM      7  C   UNL     1      60.923  76.866  93.608  1.00  0.00     0.017 A 
ATOM      8  C   UNL     1      62.105  76.399  93.028  1.00  0.00    -0.016 A 
ATOM      9  C   UNL     1      63.347  76.890  93.453  1.00  0.00     0.009 A 
ATOM     10  C   UNL     1      64.533  76.433  92.881  1.00  0.00     0.009 A 
ATOM     11  C   UNL     1      64.506  75.470  91.868  1.00  0.00    -0.017 A 
ATOM     12  C   UNL     1      65.693  75.002  91.285  1.00  0.00     0.009 A 
ATOM     13  C   UNL     1      65.658  74.043  90.276  1.00  0.00     0.001 A 
ATOM     14  C   UNL     1      64.434  73.540  89.836  1.00  0.00     0.009 A 
ATOM     15  C   UNL     1      63.233  73.991  90.402  1.00  0.00    -0.017 A 
ATOM     16  C   UNL     1      62.002  73.496  89.972  1.00  0.00     0.009 A 
ATOM     17  C   UNL     1      60.811  73.953  90.543  1.00  0.00     0.010 A 
ATOM     18  C   UNL     1      60.788  74.925  91.571  1.00  0.00    -0.009 A 
ATOM     19  C   UNL     1      62.044  75.426  92.006  1.00  0.00    -0.002 A 
ATOM     20  C   UNL     1      63.259  74.963  91.426  1.00  0.00    -0.003 A 
ENDROOT
TORSDOF 0
ENDMDL
MODEL 8
REMARK VINA RESULT:    -8.040      2.722      5.838
REMARK INTER + INTRA:          -8.040
REMARK INTER:                  -8.040
REMARK INTRA:                   0.000
REMARK UNBOUND:                 0.000
REMARK SMILES c1ccc2c(c1)cc1ccc3cccc4ccc2c1c34
REMARK SMILES IDX 1 1 2 2 3 3 4 4 5 5 6 6 7 7 8 8 9 9 10 10 11 11 12 12 13 13
REMARK SMILES IDX 14 14 15 15 16 16 17 17 18 18 19 19 20 20
REMARK H PARENT
ROOT
ATOM      1  C   UNL     1      66.155  74.222  90.285  1.00  0.00     0.001 A 
ATOM      2  C   UNL     1      66.263  75.264  91.192  1.00  0.00     0.001 A 
ATOM      3  C   UNL     1      65.116  75.770  91.811  1.00  0.00     0.009 A 
ATOM      4  C   UNL     1      63.820  75.254  91.548  1.00  0.00    -0.010 A 
ATOM      5  C   UNL     1      63.740  74.189  90.617  1.00  0.00    -0.017 A 
ATOM      6  C   UNL     1      64.901  73.689  90.000  1.00  0.00     0.009 A 
ATOM      7  C   UNL     1      62.499  73.626  90.303  1.00  0.00     0.017 A 
ATOM      8  C   UNL     1      61.317  74.088  90.889  1.00  0.00    -0.016 A 
ATOM      9  C   UNL     1      60.086  73.506  90.557  1.00  0.00     0.009 A 
ATOM     10  C   UNL     1      58.900  73.958  91.134  1.00  0.00     0.009 A 
ATOM     11  C   UNL     1      58.917  75.005  92.059  1.00  0.00    -0.017 A 
ATOM     12  C   UNL     1      57.730  75.468  92.646  1.00  0.00     0.009 A 
ATOM     13  C   UNL     1      57.754  76.512  93.567  1.00  0.00     0.001 A 
ATOM     14  C   UNL     1      58.966  77.107  93.912  1.00  0.00     0.009 A 
ATOM     15  C   UNL     1      60.167  76.663  93.340  1.00  0.00    -0.017 A 
ATOM     16  C   UNL     1      61.387  77.250  93.677  1.00  0.00     0.009 A 
ATOM     17  C   UNL     1      62.577  76.799  93.100  1.00  0.00     0.010 A 
ATOM     18  C   UNL     1      62.612  75.742  92.160  1.00  0.00    -0.009 A 
ATOM     19  C   UNL     1      61.367  75.148  91.820  1.00  0.00    -0.002 A 
ATOM     20  C   UNL     1      60.152  75.605  92.406  1.00  0.00    -0.003 A 
ENDROOT
TORSDOF 0
ENDMDL
MODEL 9
REMARK VINA RESULT:    -8.004      1.830      3.987
REMARK INTER + INTRA:          -8.004
REMARK INTER:                  -8.004
REMARK INTRA:                   0.000
REMARK UNBOUND:                 0.000
REMARK SMILES c1ccc2c(c1)cc1ccc3cccc4ccc2c1c34
REMARK SMILES IDX 1 1 2 2 3 3 4 4 5 5 6 6 7 7 8 8 9 9 10 10 11 11 12 12 13 13
REMARK SMILES IDX 14 14 15 15 16 16 17 17 18 18 19 19 20 20
REMARK H PARENT
ROOT
ATOM      1  C   UNL     1      59.585  74.532  90.018  1.00  0.00     0.001 A 
ATOM      2  C   UNL     1      59.898  73.509  89.138  1.00  0.00     0.001 A 
ATOM      3  C   UNL     1      60.831  72.534  89.506  1.00  0.00     0.009 A 
ATOM      4  C   UNL     1      61.485  72.546  90.766  1.00  0.00    -0.010 A 
ATOM      5  C   UNL     1      61.145  73.604  91.645  1.00  0.00    -0.017 A 
ATOM      6  C   UNL     1      60.206  74.579  91.263  1.00  0.00     0.009 A 
ATOM      7  C   UNL     1      61.747  73.686  92.905  1.00  0.00     0.017 A 
ATOM      8  C   UNL     1      62.685  72.743  93.331  1.00  0.00    -0.016 A 
ATOM      9  C   UNL     1      63.273  72.849  94.599  1.00  0.00     0.009 A 
ATOM     10  C   UNL     1      64.211  71.914  95.035  1.00  0.00     0.009 A 
ATOM     11  C   UNL     1      64.585  70.849  94.212  1.00  0.00    -0.017 A 
ATOM     12  C   UNL     1      65.527  69.902  94.640  1.00  0.00     0.009 A 
ATOM     13  C   UNL     1      65.895  68.843  93.814  1.00  0.00     0.001 A 
ATOM     14  C   UNL     1      65.325  68.717  92.549  1.00  0.00     0.009 A 
ATOM     15  C   UNL     1      64.380  69.650  92.096  1.00  0.00    -0.017 A 
ATOM     16  C   UNL     1      63.802  69.536  90.832  1.00  0.00     0.009 A 
ATOM     17  C   UNL     1      62.861  70.471  90.392  1.00  0.00     0.010 A 
ATOM     18  C   UNL     1      62.450  71.566  91.189  1.00  0.00    -0.009 A 
ATOM     19  C   UNL     1      63.042  71.678  92.475  1.00  0.00    -0.002 A 
ATOM     20  C   UNL     1      64.001  70.726  92.927  1.00  0.00    -0.003 A 
ENDROOT
TORSDOF 0
ENDMDL
