MODEL 1
REMARK VINA RESULT:    -5.223      0.000      0.000
REMARK INTER + INTRA:          -5.223
REMARK INTER:                  -5.223
REMARK INTRA:                   0.000
REMARK UNBOUND:                 0.000
REMARK SMILES c1ccc2ccccc2c1
REMARK SMILES IDX 2 1 1 2 10 3 9 4 8 5 7 6 6 7 5 8 4 9 3 10
REMARK H PARENT
ROOT
ATOM      1  C   UNL     1      81.250  56.850  61.081  1.00  0.00     0.001 A 
ATOM      2  C   UNL     1      81.498  56.076  59.951  1.00  0.00     0.001 A 
ATOM      3  C   UNL     1      81.498  56.668  58.686  1.00  0.00     0.009 A 
ATOM      4  C   UNL     1      81.248  58.042  58.537  1.00  0.00    -0.018 A 
ATOM      5  C   UNL     1      81.245  58.652  57.272  1.00  0.00     0.009 A 
ATOM      6  C   UNL     1      80.995  60.019  57.141  1.00  0.00     0.001 A 
ATOM      7  C   UNL     1      80.747  60.793  58.271  1.00  0.00     0.001 A 
ATOM      8  C   UNL     1      80.748  60.201  59.535  1.00  0.00     0.009 A 
ATOM      9  C   UNL     1      80.997  58.827  59.685  1.00  0.00    -0.018 A 
ATOM     10  C   UNL     1      81.000  58.217  60.949  1.00  0.00     0.009 A 
ENDROOT
TORSDOF 0
ENDMDL
MODEL 5
REMARK VINA RESULT:    -4.821      6.546      8.538
REMARK INTER + INTRA:          -4.821
REMARK INTER:                  -4.821
REMARK INTRA:                   0.000
REMARK UNBOUND:                 0.000
REMARK SMILES c1ccc2ccccc2c1
REMARK SMILES IDX 2 1 1 2 10 3 9 4 8 5 7 6 6 7 5 8 4 9 3 10
REMARK H PARENT
ROOT
ATOM      1  C   UNL     1      81.613  56.264  64.930  1.00  0.00     0.001 A 
ATOM      2  C   UNL     1      80.930  55.057  65.047  1.00  0.00     0.001 A 
ATOM      3  C   UNL     1      79.962  54.896  66.040  1.00  0.00     0.009 A 
ATOM      4  C   UNL     1      79.665  55.943  66.928  1.00  0.00    -0.018 A 
ATOM      5  C   UNL     1      78.693  55.797  67.931  1.00  0.00     0.009 A 
ATOM      6  C   UNL     1      78.409  56.847  68.807  1.00  0.00     0.001 A 
ATOM      7  C   UNL     1      79.092  58.054  68.690  1.00  0.00     0.001 A 
ATOM      8  C   UNL     1      80.060  58.215  67.697  1.00  0.00     0.009 A 
ATOM      9  C   UNL     1      80.357  57.169  66.809  1.00  0.00    -0.018 A 
ATOM     10  C   UNL     1      81.329  57.314  65.806  1.00  0.00     0.009 A 
ENDROOT
TORSDOF 0
ENDMDL
MODEL 6
REMARK VINA RESULT:    -4.790      5.993      8.036
REMARK INTER + INTRA:          -4.790
REMARK INTER:                  -4.790
REMARK INTRA:                   0.000
REMARK UNBOUND:                 0.000
REMARK SMILES c1ccc2ccccc2c1
REMARK SMILES IDX 2 1 1 2 10 3 9 4 8 5 7 6 6 7 5 8 4 9 3 10
REMARK H PARENT
ROOT
ATOM      1  C   UNL     1      80.937  57.191  64.552  1.00  0.00     0.001 A 
ATOM      2  C   UNL     1      81.349  56.433  65.644  1.00  0.00     0.001 A 
ATOM      3  C   UNL     1      81.039  56.850  66.940  1.00  0.00     0.009 A 
ATOM      4  C   UNL     1      80.311  58.031  67.159  1.00  0.00    -0.018 A 
ATOM      5  C   UNL     1      79.989  58.462  68.456  1.00  0.00     0.009 A 
ATOM      6  C   UNL     1      79.265  59.639  68.657  1.00  0.00     0.001 A 
ATOM      7  C   UNL     1      78.853  60.397  67.565  1.00  0.00     0.001 A 
ATOM      8  C   UNL     1      79.164  59.981  66.269  1.00  0.00     0.009 A 
ATOM      9  C   UNL     1      79.892  58.800  66.050  1.00  0.00    -0.018 A 
ATOM     10  C   UNL     1      80.213  58.368  64.753  1.00  0.00     0.009 A 
ENDROOT
TORSDOF 0
ENDMDL
