MODEL 1
REMARK VINA RESULT:    -8.686      0.000      0.000
REMARK INTER + INTRA:          -8.686
REMARK INTER:                  -8.686
REMARK INTRA:                   0.000
REMARK UNBOUND:                 0.000
REMARK SMILES c1ccc2c(c1)cc1ccc3cccc4ccc2c1c34
REMARK SMILES IDX 1 1 2 2 3 3 4 4 5 5 6 6 7 7 8 8 9 9 10 10 11 11 12 12 13 13
REMARK SMILES IDX 14 14 15 15 16 16 17 17 18 18 19 19 20 20
REMARK H PARENT
ROOT
ATOM      1  C   UNL     1      86.748  69.642  52.060  1.00  0.00     0.001 A 
ATOM      2  C   UNL     1      87.375  70.049  50.893  1.00  0.00     0.001 A 
ATOM      3  C   UNL     1      87.168  71.343  50.406  1.00  0.00     0.009 A 
ATOM      4  C   UNL     1      86.327  72.277  51.066  1.00  0.00    -0.010 A 
ATOM      5  C   UNL     1      85.700  71.833  52.256  1.00  0.00    -0.017 A 
ATOM      6  C   UNL     1      85.916  70.529  52.735  1.00  0.00     0.009 A 
ATOM      7  C   UNL     1      84.856  72.695  52.964  1.00  0.00     0.017 A 
ATOM      8  C   UNL     1      84.609  73.999  52.529  1.00  0.00    -0.016 A 
ATOM      9  C   UNL     1      83.759  74.841  53.259  1.00  0.00     0.009 A 
ATOM     10  C   UNL     1      83.505  76.145  52.835  1.00  0.00     0.009 A 
ATOM     11  C   UNL     1      84.096  76.639  51.668  1.00  0.00    -0.017 A 
ATOM     12  C   UNL     1      83.848  77.948  51.232  1.00  0.00     0.009 A 
ATOM     13  C   UNL     1      84.440  78.433  50.069  1.00  0.00     0.001 A 
ATOM     14  C   UNL     1      85.288  77.614  49.327  1.00  0.00     0.009 A 
ATOM     15  C   UNL     1      85.554  76.300  49.741  1.00  0.00    -0.017 A 
ATOM     16  C   UNL     1      86.400  75.470  49.008  1.00  0.00     0.009 A 
ATOM     17  C   UNL     1      86.657  74.163  49.430  1.00  0.00     0.010 A 
ATOM     18  C   UNL     1      86.083  73.618  50.603  1.00  0.00    -0.009 A 
ATOM     19  C   UNL     1      85.222  74.468  51.347  1.00  0.00    -0.002 A 
ATOM     20  C   UNL     1      84.958  75.801  50.919  1.00  0.00    -0.003 A 
ENDROOT
TORSDOF 0
ENDMDL
MODEL 2
REMARK VINA RESULT:    -8.585     45.433     48.266
REMARK INTER + INTRA:          -8.585
REMARK INTER:                  -8.585
REMARK INTRA:                   0.000
REMARK UNBOUND:                 0.000
REMARK SMILES c1ccc2c(c1)cc1ccc3cccc4ccc2c1c34
REMARK SMILES IDX 1 1 2 2 3 3 4 4 5 5 6 6 7 7 8 8 9 9 10 10 11 11 12 12 13 13
REMARK SMILES IDX 14 14 15 15 16 16 17 17 18 18 19 19 20 20
REMARK H PARENT
ROOT
ATOM      1  C   UNL     1      57.382  76.154  92.717  1.00  0.00     0.001 A 
ATOM      2  C   UNL     1      57.943  76.098  93.983  1.00  0.00     0.001 A 
ATOM      3  C   UNL     1      59.063  75.293  94.213  1.00  0.00     0.009 A 
ATOM      4  C   UNL     1      59.663  74.515  93.188  1.00  0.00    -0.010 A 
ATOM      5  C   UNL     1      59.068  74.593  91.905  1.00  0.00    -0.017 A 
ATOM      6  C   UNL     1      57.941  75.406  91.686  1.00  0.00     0.009 A 
ATOM      7  C   UNL     1      59.600  73.856  90.842  1.00  0.00     0.017 A 
ATOM      8  C   UNL     1      60.718  73.034  91.009  1.00  0.00    -0.016 A 
ATOM      9  C   UNL     1      61.231  72.307  89.926  1.00  0.00     0.009 A 
ATOM     10  C   UNL     1      62.345  71.483  90.079  1.00  0.00     0.009 A 
ATOM     11  C   UNL     1      62.974  71.367  91.322  1.00  0.00    -0.017 A 
ATOM     12  C   UNL     1      64.096  70.541  91.488  1.00  0.00     0.009 A 
ATOM     13  C   UNL     1      64.718  70.430  92.729  1.00  0.00     0.001 A 
ATOM     14  C   UNL     1      64.225  71.144  93.820  1.00  0.00     0.009 A 
ATOM     15  C   UNL     1      63.105  71.976  93.681  1.00  0.00    -0.017 A 
ATOM     16  C   UNL     1      62.602  72.695  94.765  1.00  0.00     0.009 A 
ATOM     17  C   UNL     1      61.485  73.522  94.614  1.00  0.00     0.010 A 
ATOM     18  C   UNL     1      60.814  73.673  93.377  1.00  0.00    -0.009 A 
ATOM     19  C   UNL     1      61.331  72.938  92.277  1.00  0.00    -0.002 A 
ATOM     20  C   UNL     1      62.469  72.095  92.427  1.00  0.00    -0.003 A 
ENDROOT
TORSDOF 0
ENDMDL
MODEL 3
REMARK VINA RESULT:    -8.584     45.456     48.240
REMARK INTER + INTRA:          -8.584
REMARK INTER:                  -8.584
REMARK INTRA:                   0.000
REMARK UNBOUND:                 0.000
REMARK SMILES c1ccc2c(c1)cc1ccc3cccc4ccc2c1c34
REMARK SMILES IDX 1 1 2 2 3 3 4 4 5 5 6 6 7 7 8 8 9 9 10 10 11 11 12 12 13 13
REMARK SMILES IDX 14 14 15 15 16 16 17 17 18 18 19 19 20 20
REMARK H PARENT
ROOT
ATOM      1  C   UNL     1      57.607  76.487  93.391  1.00  0.00     0.001 A 
ATOM      2  C   UNL     1      57.364  76.049  92.099  1.00  0.00     0.001 A 
ATOM      3  C   UNL     1      58.171  75.056  91.536  1.00  0.00     0.009 A 
ATOM      4  C   UNL     1      59.250  74.464  92.244  1.00  0.00    -0.010 A 
ATOM      5  C   UNL     1      59.475  74.931  93.562  1.00  0.00    -0.017 A 
ATOM      6  C   UNL     1      58.656  75.931  94.117  1.00  0.00     0.009 A 
ATOM      7  C   UNL     1      60.520  74.398  94.324  1.00  0.00     0.017 A 
ATOM      8  C   UNL     1      61.360  73.403  93.818  1.00  0.00    -0.016 A 
ATOM      9  C   UNL     1      62.400  72.886  94.604  1.00  0.00     0.009 A 
ATOM     10  C   UNL     1      63.246  71.894  94.111  1.00  0.00     0.009 A 
ATOM     11  C   UNL     1      63.072  71.394  92.817  1.00  0.00    -0.017 A 
ATOM     12  C   UNL     1      63.917  70.395  92.310  1.00  0.00     0.009 A 
ATOM     13  C   UNL     1      63.739  69.902  91.020  1.00  0.00     0.001 A 
ATOM     14  C   UNL     1      62.712  70.401  90.221  1.00  0.00     0.009 A 
ATOM     15  C   UNL     1      61.853  71.399  90.703  1.00  0.00    -0.017 A 
ATOM     16  C   UNL     1      60.823  71.908  89.914  1.00  0.00     0.009 A 
ATOM     17  C   UNL     1      59.973  72.903  90.405  1.00  0.00     0.010 A 
ATOM     18  C   UNL     1      60.108  73.440  91.707  1.00  0.00    -0.009 A 
ATOM     19  C   UNL     1      61.159  72.919  92.508  1.00  0.00    -0.002 A 
ATOM     20  C   UNL     1      62.027  71.905  92.010  1.00  0.00    -0.003 A 
ENDROOT
TORSDOF 0
ENDMDL
MODEL 4
REMARK VINA RESULT:    -8.543     45.268     47.141
REMARK INTER + INTRA:          -8.543
REMARK INTER:                  -8.543
REMARK INTRA:                   0.000
REMARK UNBOUND:                 0.000
REMARK SMILES c1ccc2c(c1)cc1ccc3cccc4ccc2c1c34
REMARK SMILES IDX 1 1 2 2 3 3 4 4 5 5 6 6 7 7 8 8 9 9 10 10 11 11 12 12 13 13
REMARK SMILES IDX 14 14 15 15 16 16 17 17 18 18 19 19 20 20
REMARK H PARENT
ROOT
ATOM      1  C   UNL     1      65.087  69.248  92.039  1.00  0.00     0.001 A 
ATOM      2  C   UNL     1      64.953  69.788  93.307  1.00  0.00     0.001 A 
ATOM      3  C   UNL     1      64.027  70.812  93.535  1.00  0.00     0.009 A 
ATOM      4  C   UNL     1      63.202  71.332  92.504  1.00  0.00    -0.010 A 
ATOM      5  C   UNL     1      63.360  70.760  91.217  1.00  0.00    -0.017 A 
ATOM      6  C   UNL     1      64.295  69.732  91.001  1.00  0.00     0.009 A 
ATOM      7  C   UNL     1      62.584  71.219  90.148  1.00  0.00     0.017 A 
ATOM      8  C   UNL     1      61.642  72.237  90.312  1.00  0.00    -0.016 A 
ATOM      9  C   UNL     1      60.877  72.678  89.223  1.00  0.00     0.009 A 
ATOM     10  C   UNL     1      59.934  73.694  89.374  1.00  0.00     0.009 A 
ATOM     11  C   UNL     1      59.733  74.295  90.620  1.00  0.00    -0.017 A 
ATOM     12  C   UNL     1      58.787  75.318  90.783  1.00  0.00     0.009 A 
ATOM     13  C   UNL     1      58.593  75.912  92.027  1.00  0.00     0.001 A 
ATOM     14  C   UNL     1      59.342  75.492  93.124  1.00  0.00     0.009 A 
ATOM     15  C   UNL     1      60.294  74.471  92.988  1.00  0.00    -0.017 A 
ATOM     16  C   UNL     1      61.051  74.040  94.077  1.00  0.00     0.009 A 
ATOM     17  C   UNL     1      61.997  73.022  93.929  1.00  0.00     0.010 A 
ATOM     18  C   UNL     1      62.236  72.383  92.690  1.00  0.00    -0.009 A 
ATOM     19  C   UNL     1      61.463  72.825  91.583  1.00  0.00    -0.002 A 
ATOM     20  C   UNL     1      60.498  73.862  91.730  1.00  0.00    -0.003 A 
ENDROOT
TORSDOF 0
ENDMDL
MODEL 5
REMARK VINA RESULT:    -8.455     46.360     48.002
REMARK INTER + INTRA:          -8.455
REMARK INTER:                  -8.455
REMARK INTRA:                   0.000
REMARK UNBOUND:                 0.000
REMARK SMILES c1ccc2c(c1)cc1ccc3cccc4ccc2c1c34
REMARK SMILES IDX 1 1 2 2 3 3 4 4 5 5 6 6 7 7 8 8 9 9 10 10 11 11 12 12 13 13
REMARK SMILES IDX 14 14 15 15 16 16 17 17 18 18 19 19 20 20
REMARK H PARENT
ROOT
ATOM      1  C   UNL     1      58.608  76.283  92.070  1.00  0.00     0.001 A 
ATOM      2  C   UNL     1      59.458  76.626  93.109  1.00  0.00     0.001 A 
ATOM      3  C   UNL     1      60.495  75.762  93.476  1.00  0.00     0.009 A 
ATOM      4  C   UNL     1      60.720  74.525  92.817  1.00  0.00    -0.010 A 
ATOM      5  C   UNL     1      59.836  74.200  91.759  1.00  0.00    -0.017 A 
ATOM      6  C   UNL     1      58.797  75.077  91.400  1.00  0.00     0.009 A 
ATOM      7  C   UNL     1      59.992  72.998  91.061  1.00  0.00     0.017 A 
ATOM      8  C   UNL     1      61.009  72.095  91.379  1.00  0.00    -0.016 A 
ATOM      9  C   UNL     1      61.143  70.897  90.663  1.00  0.00     0.009 A 
ATOM     10  C   UNL     1      62.153  69.987  90.971  1.00  0.00     0.009 A 
ATOM     11  C   UNL     1      63.055  70.252  92.005  1.00  0.00    -0.017 A 
ATOM     12  C   UNL     1      64.075  69.344  92.324  1.00  0.00     0.009 A 
ATOM     13  C   UNL     1      64.971  69.616  93.355  1.00  0.00     0.001 A 
ATOM     14  C   UNL     1      64.857  70.800  94.081  1.00  0.00     0.009 A 
ATOM     15  C   UNL     1      63.846  71.725  93.783  1.00  0.00    -0.017 A 
ATOM     16  C   UNL     1      63.721  72.913  94.501  1.00  0.00     0.009 A 
ATOM     17  C   UNL     1      62.709  73.828  94.195  1.00  0.00     0.010 A 
ATOM     18  C   UNL     1      61.773  73.604  93.158  1.00  0.00    -0.009 A 
ATOM     19  C   UNL     1      61.905  72.392  92.429  1.00  0.00    -0.002 A 
ATOM     20  C   UNL     1      62.934  71.458  92.739  1.00  0.00    -0.003 A 
ENDROOT
TORSDOF 0
ENDMDL
MODEL 6
REMARK VINA RESULT:    -8.449     46.362     46.989
REMARK INTER + INTRA:          -8.449
REMARK INTER:                  -8.449
REMARK INTRA:                   0.000
REMARK UNBOUND:                 0.000
REMARK SMILES c1ccc2c(c1)cc1ccc3cccc4ccc2c1c34
REMARK SMILES IDX 1 1 2 2 3 3 4 4 5 5 6 6 7 7 8 8 9 9 10 10 11 11 12 12 13 13
REMARK SMILES IDX 14 14 15 15 16 16 17 17 18 18 19 19 20 20
REMARK H PARENT
ROOT
ATOM      1  C   UNL     1      64.101  68.022  92.105  1.00  0.00     0.001 A 
ATOM      2  C   UNL     1      63.031  67.914  91.231  1.00  0.00     0.001 A 
ATOM      3  C   UNL     1      62.231  69.031  90.968  1.00  0.00     0.009 A 
ATOM      4  C   UNL     1      62.472  70.295  91.567  1.00  0.00    -0.010 A 
ATOM      5  C   UNL     1      63.572  70.375  92.456  1.00  0.00    -0.017 A 
ATOM      6  C   UNL     1      64.368  69.245  92.713  1.00  0.00     0.009 A 
ATOM      7  C   UNL     1      63.874  71.586  93.087  1.00  0.00     0.017 A 
ATOM      8  C   UNL     1      63.113  72.737  92.865  1.00  0.00    -0.016 A 
ATOM      9  C   UNL     1      63.438  73.938  93.511  1.00  0.00     0.009 A 
ATOM     10  C   UNL     1      62.687  75.093  93.297  1.00  0.00     0.009 A 
ATOM     11  C   UNL     1      61.590  75.074  92.431  1.00  0.00    -0.017 A 
ATOM     12  C   UNL     1      60.827  76.230  92.208  1.00  0.00     0.009 A 
ATOM     13  C   UNL     1      59.736  76.204  91.344  1.00  0.00     0.001 A 
ATOM     14  C   UNL     1      59.393  75.022  90.691  1.00  0.00     0.009 A 
ATOM     15  C   UNL     1      60.140  73.852  90.896  1.00  0.00    -0.017 A 
ATOM     16  C   UNL     1      59.808  72.662  90.249  1.00  0.00     0.009 A 
ATOM     17  C   UNL     1      60.559  71.503  90.461  1.00  0.00     0.010 A 
ATOM     18  C   UNL     1      61.677  71.471  91.328  1.00  0.00    -0.009 A 
ATOM     19  C   UNL     1      62.011  72.686  91.984  1.00  0.00    -0.002 A 
ATOM     20  C   UNL     1      61.248  73.869  91.770  1.00  0.00    -0.003 A 
ENDROOT
TORSDOF 0
ENDMDL
MODEL 7
REMARK VINA RESULT:    -8.417     44.729     47.516
REMARK INTER + INTRA:          -8.417
REMARK INTER:                  -8.417
REMARK INTRA:                   0.000
REMARK UNBOUND:                 0.000
REMARK SMILES c1ccc2c(c1)cc1ccc3cccc4ccc2c1c34
REMARK SMILES IDX 1 1 2 2 3 3 4 4 5 5 6 6 7 7 8 8 9 9 10 10 11 11 12 12 13 13
REMARK SMILES IDX 14 14 15 15 16 16 17 17 18 18 19 19 20 20
REMARK H PARENT
ROOT
ATOM      1  C   UNL     1      56.949  76.029  93.125  1.00  0.00     0.001 A 
ATOM      2  C   UNL     1      57.716  76.857  93.929  1.00  0.00     0.001 A 
ATOM      3  C   UNL     1      59.109  76.853  93.805  1.00  0.00     0.009 A 
ATOM      4  C   UNL     1      59.786  76.023  92.874  1.00  0.00    -0.010 A 
ATOM      5  C   UNL     1      58.977  75.188  92.065  1.00  0.00    -0.017 A 
ATOM      6  C   UNL     1      57.577  75.201  92.199  1.00  0.00     0.009 A 
ATOM      7  C   UNL     1      59.569  74.341  91.123  1.00  0.00     0.017 A 
ATOM      8  C   UNL     1      60.954  74.292  90.951  1.00  0.00    -0.016 A 
ATOM      9  C   UNL     1      61.522  73.434  89.999  1.00  0.00     0.009 A 
ATOM     10  C   UNL     1      62.903  73.376  89.819  1.00  0.00     0.009 A 
ATOM     11  C   UNL     1      63.752  74.176  90.588  1.00  0.00    -0.017 A 
ATOM     12  C   UNL     1      65.143  74.126  90.415  1.00  0.00     0.009 A 
ATOM     13  C   UNL     1      65.983  74.927  91.184  1.00  0.00     0.001 A 
ATOM     14  C   UNL     1      65.442  75.788  92.138  1.00  0.00     0.009 A 
ATOM     15  C   UNL     1      64.055  75.857  92.330  1.00  0.00    -0.017 A 
ATOM     16  C   UNL     1      63.500  76.714  93.280  1.00  0.00     0.009 A 
ATOM     17  C   UNL     1      62.116  76.775  93.464  1.00  0.00     0.010 A 
ATOM     18  C   UNL     1      61.216  75.985  92.710  1.00  0.00    -0.009 A 
ATOM     19  C   UNL     1      61.785  75.114  91.743  1.00  0.00    -0.002 A 
ATOM     20  C   UNL     1      63.196  75.049  91.554  1.00  0.00    -0.003 A 
ENDROOT
TORSDOF 0
ENDMDL
MODEL 8
REMARK VINA RESULT:    -8.264      3.855      7.421
REMARK INTER + INTRA:          -8.264
REMARK INTER:                  -8.264
REMARK INTRA:                   0.000
REMARK UNBOUND:                 0.000
REMARK SMILES c1ccc2c(c1)cc1ccc3cccc4ccc2c1c34
REMARK SMILES IDX 1 1 2 2 3 3 4 4 5 5 6 6 7 7 8 8 9 9 10 10 11 11 12 12 13 13
REMARK SMILES IDX 14 14 15 15 16 16 17 17 18 18 19 19 20 20
REMARK H PARENT
ROOT
ATOM      1  C   UNL     1      84.420  78.862  42.132  1.00  0.00     0.001 A 
ATOM      2  C   UNL     1      85.380  77.866  42.208  1.00  0.00     0.001 A 
ATOM      3  C   UNL     1      85.747  77.346  43.453  1.00  0.00     0.009 A 
ATOM      4  C   UNL     1      85.169  77.802  44.667  1.00  0.00    -0.010 A 
ATOM      5  C   UNL     1      84.191  78.821  44.559  1.00  0.00    -0.017 A 
ATOM      6  C   UNL     1      83.830  79.336  43.300  1.00  0.00     0.009 A 
ATOM      7  C   UNL     1      83.575  79.323  45.709  1.00  0.00     0.017 A 
ATOM      8  C   UNL     1      83.898  78.844  46.981  1.00  0.00    -0.016 A 
ATOM      9  C   UNL     1      83.265  79.366  48.118  1.00  0.00     0.009 A 
ATOM     10  C   UNL     1      83.580  78.897  49.392  1.00  0.00     0.009 A 
ATOM     11  C   UNL     1      84.537  77.892  49.561  1.00  0.00    -0.017 A 
ATOM     12  C   UNL     1      84.861  77.412  50.839  1.00  0.00     0.009 A 
ATOM     13  C   UNL     1      85.816  76.411  51.000  1.00  0.00     0.001 A 
ATOM     14  C   UNL     1      86.459  75.878  49.884  1.00  0.00     0.009 A 
ATOM     15  C   UNL     1      86.153  76.340  48.596  1.00  0.00    -0.017 A 
ATOM     16  C   UNL     1      86.789  75.815  47.471  1.00  0.00     0.009 A 
ATOM     17  C   UNL     1      86.476  76.283  46.192  1.00  0.00     0.010 A 
ATOM     18  C   UNL     1      85.515  77.298  45.970  1.00  0.00    -0.009 A 
ATOM     19  C   UNL     1      84.870  77.829  47.118  1.00  0.00    -0.002 A 
ATOM     20  C   UNL     1      85.186  77.354  48.423  1.00  0.00    -0.003 A 
ENDROOT
TORSDOF 0
ENDMDL
MODEL 9
REMARK VINA RESULT:    -8.110      4.444      8.648
REMARK INTER + INTRA:          -8.110
REMARK INTER:                  -8.110
REMARK INTRA:                   0.000
REMARK UNBOUND:                 0.000
REMARK SMILES c1ccc2c(c1)cc1ccc3cccc4ccc2c1c34
REMARK SMILES IDX 1 1 2 2 3 3 4 4 5 5 6 6 7 7 8 8 9 9 10 10 11 11 12 12 13 13
REMARK SMILES IDX 14 14 15 15 16 16 17 17 18 18 19 19 20 20
REMARK H PARENT
ROOT
ATOM      1  C   UNL     1      79.454  81.746  47.845  1.00  0.00     0.001 A 
ATOM      2  C   UNL     1      79.779  81.328  49.126  1.00  0.00     0.001 A 
ATOM      3  C   UNL     1      80.882  80.492  49.327  1.00  0.00     0.009 A 
ATOM      4  C   UNL     1      81.700  80.043  48.257  1.00  0.00    -0.010 A 
ATOM      5  C   UNL     1      81.344  80.487  46.959  1.00  0.00    -0.017 A 
ATOM      6  C   UNL     1      80.232  81.327  46.770  1.00  0.00     0.009 A 
ATOM      7  C   UNL     1      82.100  80.088  45.853  1.00  0.00     0.017 A 
ATOM      8  C   UNL     1      83.213  79.254  45.989  1.00  0.00    -0.016 A 
ATOM      9  C   UNL     1      83.953  78.870  44.862  1.00  0.00     0.009 A 
ATOM     10  C   UNL     1      85.065  78.038  44.985  1.00  0.00     0.009 A 
ATOM     11  C   UNL     1      85.465  77.569  46.240  1.00  0.00    -0.017 A 
ATOM     12  C   UNL     1      86.582  76.732  46.376  1.00  0.00     0.009 A 
ATOM     13  C   UNL     1      86.974  76.269  47.629  1.00  0.00     0.001 A 
ATOM     14  C   UNL     1      86.252  76.637  48.763  1.00  0.00     0.009 A 
ATOM     15  C   UNL     1      85.131  77.473  48.655  1.00  0.00    -0.017 A 
ATOM     16  C   UNL     1      84.401  77.849  49.782  1.00  0.00     0.009 A 
ATOM     17  C   UNL     1      83.286  78.683  49.662  1.00  0.00     0.010 A 
ATOM     18  C   UNL     1      82.843  79.183  48.415  1.00  0.00    -0.009 A 
ATOM     19  C   UNL     1      83.590  78.797  47.270  1.00  0.00    -0.002 A 
ATOM     20  C   UNL     1      84.728  77.948  47.389  1.00  0.00    -0.003 A 
ENDROOT
TORSDOF 0
ENDMDL
