MODEL 1
REMARK VINA RESULT:    -8.118      0.000      0.000
REMARK INTER + INTRA:          -8.118
REMARK INTER:                  -8.118
REMARK INTRA:                   0.000
REMARK UNBOUND:                 0.000
REMARK SMILES c1ccc2c(c1)-c1cccc3cccc-2c13
REMARK SMILES IDX 1 1 2 2 3 3 4 4 5 5 6 6 7 7 8 8 9 9 10 10 11 11 12 12 13 13
REMARK SMILES IDX 14 14 15 15 16 16
REMARK H PARENT
ROOT
ATOM      1  C   UNL     1      85.447  78.161  49.129  1.00  0.00     0.001 A 
ATOM      2  C   UNL     1      86.256  77.254  48.417  1.00  0.00     0.001 A 
ATOM      3  C   UNL     1      86.443  75.944  48.870  1.00  0.00     0.009 A 
ATOM      4  C   UNL     1      85.807  75.569  50.038  1.00  0.00    -0.010 A 
ATOM      5  C   UNL     1      84.990  76.486  50.758  1.00  0.00    -0.010 A 
ATOM      6  C   UNL     1      84.805  77.781  50.312  1.00  0.00     0.009 A 
ATOM      7  C   UNL     1      84.480  75.778  51.925  1.00  0.00    -0.009 A 
ATOM      8  C   UNL     1      83.651  76.148  52.968  1.00  0.00     0.009 A 
ATOM      9  C   UNL     1      83.349  75.195  53.957  1.00  0.00     0.001 A 
ATOM     10  C   UNL     1      83.873  73.885  53.900  1.00  0.00     0.009 A 
ATOM     11  C   UNL     1      84.718  73.501  52.840  1.00  0.00    -0.017 A 
ATOM     12  C   UNL     1      85.329  72.253  52.618  1.00  0.00     0.009 A 
ATOM     13  C   UNL     1      86.152  72.052  51.487  1.00  0.00     0.001 A 
ATOM     14  C   UNL     1      86.386  73.082  50.558  1.00  0.00     0.009 A 
ATOM     15  C   UNL     1      85.788  74.311  50.772  1.00  0.00    -0.009 A 
ATOM     16  C   UNL     1      84.983  74.485  51.889  1.00  0.00    -0.003 A 
ENDROOT
TORSDOF 0
ENDMDL
MODEL 2
REMARK VINA RESULT:    -7.918     44.868     47.562
REMARK INTER + INTRA:          -7.918
REMARK INTER:                  -7.918
REMARK INTRA:                   0.000
REMARK UNBOUND:                 0.000
REMARK SMILES c1ccc2c(c1)-c1cccc3cccc-2c13
REMARK SMILES IDX 1 1 2 2 3 3 4 4 5 5 6 6 7 7 8 8 9 9 10 10 11 11 12 12 13 13
REMARK SMILES IDX 14 14 15 15 16 16
REMARK H PARENT
ROOT
ATOM      1  C   UNL     1      57.245  76.045  93.062  1.00  0.00     0.001 A 
ATOM      2  C   UNL     1      58.041  76.852  93.898  1.00  0.00     0.001 A 
ATOM      3  C   UNL     1      59.436  76.847  93.789  1.00  0.00     0.009 A 
ATOM      4  C   UNL     1      60.006  76.026  92.836  1.00  0.00    -0.010 A 
ATOM      5  C   UNL     1      59.201  75.210  91.992  1.00  0.00    -0.010 A 
ATOM      6  C   UNL     1      57.822  75.213  92.097  1.00  0.00     0.009 A 
ATOM      7  C   UNL     1      60.105  74.478  91.115  1.00  0.00    -0.009 A 
ATOM      8  C   UNL     1      59.904  73.554  90.106  1.00  0.00     0.009 A 
ATOM      9  C   UNL     1      61.027  73.030  89.441  1.00  0.00     0.001 A 
ATOM     10  C   UNL     1      62.337  73.428  89.785  1.00  0.00     0.009 A 
ATOM     11  C   UNL     1      62.550  74.369  90.812  1.00  0.00    -0.017 A 
ATOM     12  C   UNL     1      63.771  74.881  91.290  1.00  0.00     0.009 A 
ATOM     13  C   UNL     1      63.787  75.828  92.337  1.00  0.00     0.001 A 
ATOM     14  C   UNL     1      62.597  76.285  92.932  1.00  0.00     0.009 A 
ATOM     15  C   UNL     1      61.394  75.784  92.466  1.00  0.00    -0.009 A 
ATOM     16  C   UNL     1      61.402  74.855  91.436  1.00  0.00    -0.003 A 
ENDROOT
TORSDOF 0
ENDMDL
MODEL 3
REMARK VINA RESULT:    -7.905     44.897     47.560
REMARK INTER + INTRA:          -7.905
REMARK INTER:                  -7.905
REMARK INTRA:                   0.000
REMARK UNBOUND:                 0.000
REMARK SMILES c1ccc2c(c1)-c1cccc3cccc-2c13
REMARK SMILES IDX 1 1 2 2 3 3 4 4 5 5 6 6 7 7 8 8 9 9 10 10 11 11 12 12 13 13
REMARK SMILES IDX 14 14 15 15 16 16
REMARK H PARENT
ROOT
ATOM      1  C   UNL     1      58.030  76.813  93.928  1.00  0.00     0.001 A 
ATOM      2  C   UNL     1      57.226  76.019  93.086  1.00  0.00     0.001 A 
ATOM      3  C   UNL     1      57.798  75.190  92.115  1.00  0.00     0.009 A 
ATOM      4  C   UNL     1      59.175  75.174  92.011  1.00  0.00    -0.010 A 
ATOM      5  C   UNL     1      59.987  75.976  92.862  1.00  0.00    -0.010 A 
ATOM      6  C   UNL     1      59.424  76.797  93.821  1.00  0.00     0.009 A 
ATOM      7  C   UNL     1      61.374  75.726  92.491  1.00  0.00    -0.009 A 
ATOM      8  C   UNL     1      62.581  76.211  92.960  1.00  0.00     0.009 A 
ATOM      9  C   UNL     1      63.768  75.748  92.364  1.00  0.00     0.001 A 
ATOM     10  C   UNL     1      63.744  74.810  91.309  1.00  0.00     0.009 A 
ATOM     11  C   UNL     1      62.517  74.312  90.826  1.00  0.00    -0.017 A 
ATOM     12  C   UNL     1      62.298  73.382  89.793  1.00  0.00     0.009 A 
ATOM     13  C   UNL     1      60.984  72.998  89.445  1.00  0.00     0.001 A 
ATOM     14  C   UNL     1      59.864  73.527  90.112  1.00  0.00     0.009 A 
ATOM     15  C   UNL     1      60.075  74.442  91.129  1.00  0.00    -0.009 A 
ATOM     16  C   UNL     1      61.374  74.804  91.453  1.00  0.00    -0.003 A 
ENDROOT
TORSDOF 0
ENDMDL
MODEL 4
REMARK VINA RESULT:    -7.590     45.118     47.815
REMARK INTER + INTRA:          -7.590
REMARK INTER:                  -7.590
REMARK INTRA:                   0.000
REMARK UNBOUND:                 0.000
REMARK SMILES c1ccc2c(c1)-c1cccc3cccc-2c13
REMARK SMILES IDX 1 1 2 2 3 3 4 4 5 5 6 6 7 7 8 8 9 9 10 10 11 11 12 12 13 13
REMARK SMILES IDX 14 14 15 15 16 16
REMARK H PARENT
ROOT
ATOM      1  C   UNL     1      63.945  71.472  94.211  1.00  0.00     0.001 A 
ATOM      2  C   UNL     1      63.342  72.193  95.260  1.00  0.00     0.001 A 
ATOM      3  C   UNL     1      62.251  73.037  95.023  1.00  0.00     0.009 A 
ATOM      4  C   UNL     1      61.786  73.139  93.726  1.00  0.00    -0.010 A 
ATOM      5  C   UNL     1      62.396  72.410  92.665  1.00  0.00    -0.010 A 
ATOM      6  C   UNL     1      63.474  71.576  92.898  1.00  0.00     0.009 A 
ATOM      7  C   UNL     1      61.671  72.743  91.446  1.00  0.00    -0.009 A 
ATOM      8  C   UNL     1      61.807  72.348  90.128  1.00  0.00     0.009 A 
ATOM      9  C   UNL     1      60.916  72.873  89.174  1.00  0.00     0.001 A 
ATOM     10  C   UNL     1      59.900  73.784  89.540  1.00  0.00     0.009 A 
ATOM     11  C   UNL     1      59.757  74.190  90.881  1.00  0.00    -0.017 A 
ATOM     12  C   UNL     1      58.815  75.082  91.428  1.00  0.00     0.009 A 
ATOM     13  C   UNL     1      58.824  75.371  92.811  1.00  0.00     0.001 A 
ATOM     14  C   UNL     1      59.766  74.785  93.676  1.00  0.00     0.009 A 
ATOM     15  C   UNL     1      60.694  73.908  93.143  1.00  0.00    -0.009 A 
ATOM     16  C   UNL     1      60.666  73.639  91.782  1.00  0.00    -0.003 A 
ENDROOT
TORSDOF 0
ENDMDL
MODEL 5
REMARK VINA RESULT:    -7.581     45.126     47.746
REMARK INTER + INTRA:          -7.581
REMARK INTER:                  -7.581
REMARK INTRA:                   0.000
REMARK UNBOUND:                 0.000
REMARK SMILES c1ccc2c(c1)-c1cccc3cccc-2c13
REMARK SMILES IDX 1 1 2 2 3 3 4 4 5 5 6 6 7 7 8 8 9 9 10 10 11 11 12 12 13 13
REMARK SMILES IDX 14 14 15 15 16 16
REMARK H PARENT
ROOT
ATOM      1  C   UNL     1      63.245  72.252  95.290  1.00  0.00     0.001 A 
ATOM      2  C   UNL     1      63.851  71.509  94.257  1.00  0.00     0.001 A 
ATOM      3  C   UNL     1      63.394  71.601  92.938  1.00  0.00     0.009 A 
ATOM      4  C   UNL     1      62.329  72.444  92.682  1.00  0.00    -0.010 A 
ATOM      5  C   UNL     1      61.717  73.194  93.725  1.00  0.00    -0.010 A 
ATOM      6  C   UNL     1      62.167  73.104  95.030  1.00  0.00     0.009 A 
ATOM      7  C   UNL     1      60.641  73.968  93.121  1.00  0.00    -0.009 A 
ATOM      8  C   UNL     1      59.717  74.862  93.630  1.00  0.00     0.009 A 
ATOM      9  C   UNL     1      58.792  75.448  92.748  1.00  0.00     0.001 A 
ATOM     10  C   UNL     1      58.793  75.140  91.370  1.00  0.00     0.009 A 
ATOM     11  C   UNL     1      59.732  74.230  90.844  1.00  0.00    -0.017 A 
ATOM     12  C   UNL     1      59.884  73.803  89.511  1.00  0.00     0.009 A 
ATOM     13  C   UNL     1      60.892  72.875  89.169  1.00  0.00     0.001 A 
ATOM     14  C   UNL     1      61.767  72.352  90.139  1.00  0.00     0.009 A 
ATOM     15  C   UNL     1      61.621  72.768  91.450  1.00  0.00    -0.009 A 
ATOM     16  C   UNL     1      60.624  73.681  91.763  1.00  0.00    -0.003 A 
ENDROOT
TORSDOF 0
ENDMDL
MODEL 6
REMARK VINA RESULT:    -7.361     18.557     20.441
REMARK INTER + INTRA:          -7.361
REMARK INTER:                  -7.361
REMARK INTRA:                   0.000
REMARK UNBOUND:                 0.000
REMARK SMILES c1ccc2c(c1)-c1cccc3cccc-2c13
REMARK SMILES IDX 1 1 2 2 3 3 4 4 5 5 6 6 7 7 8 8 9 9 10 10 11 11 12 12 13 13
REMARK SMILES IDX 14 14 15 15 16 16
REMARK H PARENT
ROOT
ATOM      1  C   UNL     1      66.565  76.002  58.355  1.00  0.00     0.001 A 
ATOM      2  C   UNL     1      67.907  75.800  58.733  1.00  0.00     0.001 A 
ATOM      3  C   UNL     1      68.664  76.839  59.286  1.00  0.00     0.009 A 
ATOM      4  C   UNL     1      68.053  78.067  59.449  1.00  0.00    -0.010 A 
ATOM      5  C   UNL     1      66.696  78.270  59.066  1.00  0.00    -0.010 A 
ATOM      6  C   UNL     1      65.946  77.246  58.519  1.00  0.00     0.009 A 
ATOM      7  C   UNL     1      66.370  79.658  59.368  1.00  0.00    -0.009 A 
ATOM      8  C   UNL     1      65.223  80.414  59.217  1.00  0.00     0.009 A 
ATOM      9  C   UNL     1      65.248  81.761  59.622  1.00  0.00     0.001 A 
ATOM     10  C   UNL     1      66.411  82.342  60.173  1.00  0.00     0.009 A 
ATOM     11  C   UNL     1      67.584  81.576  60.330  1.00  0.00    -0.017 A 
ATOM     12  C   UNL     1      68.826  81.979  60.855  1.00  0.00     0.009 A 
ATOM     13  C   UNL     1      69.898  81.063  60.935  1.00  0.00     0.001 A 
ATOM     14  C   UNL     1      69.760  79.733  60.498  1.00  0.00     0.009 A 
ATOM     15  C   UNL     1      68.541  79.332  59.982  1.00  0.00    -0.009 A 
ATOM     16  C   UNL     1      67.502  80.249  59.913  1.00  0.00    -0.003 A 
ENDROOT
TORSDOF 0
ENDMDL
MODEL 7
REMARK VINA RESULT:    -7.328     45.582     47.739
REMARK INTER + INTRA:          -7.328
REMARK INTER:                  -7.328
REMARK INTRA:                   0.000
REMARK UNBOUND:                 0.000
REMARK SMILES c1ccc2c(c1)-c1cccc3cccc-2c13
REMARK SMILES IDX 1 1 2 2 3 3 4 4 5 5 6 6 7 7 8 8 9 9 10 10 11 11 12 12 13 13
REMARK SMILES IDX 14 14 15 15 16 16
REMARK H PARENT
ROOT
ATOM      1  C   UNL     1      60.766  71.553  90.214  1.00  0.00     0.001 A 
ATOM      2  C   UNL     1      62.136  71.827  90.395  1.00  0.00     0.001 A 
ATOM      3  C   UNL     1      62.559  72.986  91.054  1.00  0.00     0.009 A 
ATOM      4  C   UNL     1      61.590  73.852  91.522  1.00  0.00    -0.010 A 
ATOM      5  C   UNL     1      60.206  73.575  91.339  1.00  0.00    -0.010 A 
ATOM      6  C   UNL     1      59.785  72.431  90.688  1.00  0.00     0.009 A 
ATOM      7  C   UNL     1      59.466  74.676  91.943  1.00  0.00    -0.009 A 
ATOM      8  C   UNL     1      58.117  74.952  92.071  1.00  0.00     0.009 A 
ATOM      9  C   UNL     1      57.733  76.134  92.728  1.00  0.00     0.001 A 
ATOM     10  C   UNL     1      58.691  77.030  93.251  1.00  0.00     0.009 A 
ATOM     11  C   UNL     1      60.067  76.756  93.123  1.00  0.00    -0.017 A 
ATOM     12  C   UNL     1      61.157  77.524  93.575  1.00  0.00     0.009 A 
ATOM     13  C   UNL     1      62.481  77.083  93.354  1.00  0.00     0.001 A 
ATOM     14  C   UNL     1      62.750  75.877  92.682  1.00  0.00     0.009 A 
ATOM     15  C   UNL     1      61.682  75.119  92.235  1.00  0.00    -0.009 A 
ATOM     16  C   UNL     1      60.390  75.571  92.464  1.00  0.00    -0.003 A 
ENDROOT
TORSDOF 0
ENDMDL
MODEL 8
REMARK VINA RESULT:    -7.325     45.576     47.766
REMARK INTER + INTRA:          -7.325
REMARK INTER:                  -7.325
REMARK INTRA:                   0.000
REMARK UNBOUND:                 0.000
REMARK SMILES c1ccc2c(c1)-c1cccc3cccc-2c13
REMARK SMILES IDX 1 1 2 2 3 3 4 4 5 5 6 6 7 7 8 8 9 9 10 10 11 11 12 12 13 13
REMARK SMILES IDX 14 14 15 15 16 16
REMARK H PARENT
ROOT
ATOM      1  C   UNL     1      62.259  71.862  90.463  1.00  0.00     0.001 A 
ATOM      2  C   UNL     1      60.909  71.527  90.242  1.00  0.00     0.001 A 
ATOM      3  C   UNL     1      59.877  72.370  90.666  1.00  0.00     0.009 A 
ATOM      4  C   UNL     1      60.225  73.542  91.309  1.00  0.00    -0.010 A 
ATOM      5  C   UNL     1      61.590  73.881  91.533  1.00  0.00    -0.010 A 
ATOM      6  C   UNL     1      62.612  73.049  91.115  1.00  0.00     0.009 A 
ATOM      7  C   UNL     1      61.604  75.163  92.226  1.00  0.00    -0.009 A 
ATOM      8  C   UNL     1      62.622  75.973  92.694  1.00  0.00     0.009 A 
ATOM      9  C   UNL     1      62.280  77.178  93.334  1.00  0.00     0.001 A 
ATOM     10  C   UNL     1      60.933  77.565  93.502  1.00  0.00     0.009 A 
ATOM     11  C   UNL     1      59.891  76.744  93.028  1.00  0.00    -0.017 A 
ATOM     12  C   UNL     1      58.502  76.962  93.104  1.00  0.00     0.009 A 
ATOM     13  C   UNL     1      57.601  76.016  92.566  1.00  0.00     0.001 A 
ATOM     14  C   UNL     1      58.056  74.840  91.945  1.00  0.00     0.009 A 
ATOM     15  C   UNL     1      59.420  74.621  91.867  1.00  0.00    -0.009 A 
ATOM     16  C   UNL     1      60.287  75.563  92.402  1.00  0.00    -0.003 A 
ENDROOT
TORSDOF 0
ENDMDL
MODEL 9
REMARK VINA RESULT:    -7.146     45.204     47.013
REMARK INTER + INTRA:          -7.146
REMARK INTER:                  -7.146
REMARK INTRA:                   0.000
REMARK UNBOUND:                 0.000
REMARK SMILES c1ccc2c(c1)-c1cccc3cccc-2c13
REMARK SMILES IDX 1 1 2 2 3 3 4 4 5 5 6 6 7 7 8 8 9 9 10 10 11 11 12 12 13 13
REMARK SMILES IDX 14 14 15 15 16 16
REMARK H PARENT
ROOT
ATOM      1  C   UNL     1      64.091  77.221  93.969  1.00  0.00     0.001 A 
ATOM      2  C   UNL     1      64.913  76.347  93.231  1.00  0.00     0.001 A 
ATOM      3  C   UNL     1      64.372  75.482  92.274  1.00  0.00     0.009 A 
ATOM      4  C   UNL     1      63.005  75.513  92.077  1.00  0.00    -0.010 A 
ATOM      5  C   UNL     1      62.173  76.396  92.823  1.00  0.00    -0.010 A 
ATOM      6  C   UNL     1      62.706  77.251  93.769  1.00  0.00     0.009 A 
ATOM      7  C   UNL     1      60.805  76.175  92.375  1.00  0.00    -0.009 A 
ATOM      8  C   UNL     1      59.591  76.733  92.732  1.00  0.00     0.009 A 
ATOM      9  C   UNL     1      58.427  76.281  92.085  1.00  0.00     0.001 A 
ATOM     10  C   UNL     1      58.481  75.280  91.090  1.00  0.00     0.009 A 
ATOM     11  C   UNL     1      59.714  74.707  90.722  1.00  0.00    -0.017 A 
ATOM     12  C   UNL     1      59.961  73.707  89.762  1.00  0.00     0.009 A 
ATOM     13  C   UNL     1      61.278  73.254  89.527  1.00  0.00     0.001 A 
ATOM     14  C   UNL     1      62.373  73.780  90.236  1.00  0.00     0.009 A 
ATOM     15  C   UNL     1      62.135  74.762  91.181  1.00  0.00    -0.009 A 
ATOM     16  C   UNL     1      60.833  75.193  91.395  1.00  0.00    -0.003 A 
ENDROOT
TORSDOF 0
ENDMDL
