MODEL 1
REMARK VINA RESULT:    -9.520      0.000      0.000
REMARK INTER + INTRA:          -9.520
REMARK INTER:                  -9.520
REMARK INTRA:                   0.000
REMARK UNBOUND:                 0.000
REMARK  Name = benzo_a_pyrene
REMARK  0 active torsions:
REMARK  status: ('A' for Active; 'I' for Inactive)
REMARK                            x       y       z     vdW  Elec       q    Type
REMARK                         _______ _______ _______ _____ _____    ______ ____
ROOT
ATOM      1  C   UNL     1      75.042  73.546  61.157  0.00  0.00    +0.000 A 
ATOM      2  C   UNL     1      74.119  72.873  61.941  0.00  0.00    +0.000 A 
ATOM      3  C   UNL     1      72.956  72.356  61.362  0.00  0.00    +0.000 A 
ATOM      4  C   UNL     1      72.673  72.492  59.977  0.00  0.00    +0.000 A 
ATOM      5  C   UNL     1      73.634  73.184  59.200  0.00  0.00    +0.000 A 
ATOM      6  C   UNL     1      74.799  73.700  59.795  0.00  0.00    +0.000 A 
ATOM      7  C   UNL     1      73.427  73.360  57.828  0.00  0.00    +0.000 A 
ATOM      8  C   UNL     1      72.286  72.866  57.191  0.00  0.00    +0.000 A 
ATOM      9  C   UNL     1      72.105  73.057  55.814  0.00  0.00    +0.000 A 
ATOM     10  C   UNL     1      70.970  72.570  55.166  0.00  0.00    +0.000 A 
ATOM     11  C   UNL     1      69.988  71.878  55.881  0.00  0.00    +0.000 A 
ATOM     12  C   UNL     1      68.843  71.383  55.240  0.00  0.00    +0.000 A 
ATOM     13  C   UNL     1      67.869  70.695  55.959  0.00  0.00    +0.000 A 
ATOM     14  C   UNL     1      68.028  70.495  57.329  0.00  0.00    +0.000 A 
ATOM     15  C   UNL     1      69.163  70.979  57.994  0.00  0.00    +0.000 A 
ATOM     16  C   UNL     1      69.335  70.785  59.365  0.00  0.00    +0.000 A 
ATOM     17  C   UNL     1      70.470  71.273  60.017  0.00  0.00    +0.000 A 
ATOM     18  C   UNL     1      71.491  71.977  59.336  0.00  0.00    +0.000 A 
ATOM     19  C   UNL     1      71.313  72.172  57.941  0.00  0.00    +0.000 A 
ATOM     20  C   UNL     1      70.156  71.677  57.273  0.00  0.00    +0.000 A 
ENDROOT
TORSDOF 0
ENDMDL
MODEL 2
REMARK VINA RESULT:    -9.173      0.670      2.928
REMARK INTER + INTRA:          -9.173
REMARK INTER:                  -9.173
REMARK INTRA:                   0.000
REMARK UNBOUND:                 0.000
REMARK  Name = benzo_a_pyrene
REMARK  0 active torsions:
REMARK  status: ('A' for Active; 'I' for Inactive)
REMARK                            x       y       z     vdW  Elec       q    Type
REMARK                         _______ _______ _______ _____ _____    ______ ____
ROOT
ATOM      1  C   UNL     1      75.429  73.646  60.510  0.00  0.00    +0.000 A 
ATOM      2  C   UNL     1      75.584  74.047  59.193  0.00  0.00    +0.000 A 
ATOM      3  C   UNL     1      74.593  73.748  58.253  0.00  0.00    +0.000 A 
ATOM      4  C   UNL     1      73.411  73.039  58.594  0.00  0.00    +0.000 A 
ATOM      5  C   UNL     1      73.280  72.642  59.948  0.00  0.00    +0.000 A 
ATOM      6  C   UNL     1      74.285  72.948  60.884  0.00  0.00    +0.000 A 
ATOM      7  C   UNL     1      72.145  71.939  60.363  0.00  0.00    +0.000 A 
ATOM      8  C   UNL     1      71.120  71.612  59.472  0.00  0.00    +0.000 A 
ATOM      9  C   UNL     1      69.993  70.907  59.916  0.00  0.00    +0.000 A 
ATOM     10  C   UNL     1      68.964  70.574  59.036  0.00  0.00    +0.000 A 
ATOM     11  C   UNL     1      69.037  70.939  57.689  0.00  0.00    +0.000 A 
ATOM     12  C   UNL     1      68.008  70.610  56.794  0.00  0.00    +0.000 A 
ATOM     13  C   UNL     1      68.088  70.977  55.454  0.00  0.00    +0.000 A 
ATOM     14  C   UNL     1      69.200  71.678  54.990  0.00  0.00    +0.000 A 
ATOM     15  C   UNL     1      70.242  72.020  55.863  0.00  0.00    +0.000 A 
ATOM     16  C   UNL     1      71.360  72.721  55.412  0.00  0.00    +0.000 A 
ATOM     17  C   UNL     1      72.394  73.056  56.291  0.00  0.00    +0.000 A 
ATOM     18  C   UNL     1      72.365  72.709  57.663  0.00  0.00    +0.000 A 
ATOM     19  C   UNL     1      71.224  71.995  58.117  0.00  0.00    +0.000 A 
ATOM     20  C   UNL     1      70.169  71.652  57.224  0.00  0.00    +0.000 A 
ENDROOT
TORSDOF 0
ENDMDL
MODEL 3
REMARK VINA RESULT:    -8.723      0.935      6.137
REMARK INTER + INTRA:          -8.723
REMARK INTER:                  -8.723
REMARK INTRA:                   0.000
REMARK UNBOUND:                 0.000
REMARK  Name = benzo_a_pyrene
REMARK  0 active torsions:
REMARK  status: ('A' for Active; 'I' for Inactive)
REMARK                            x       y       z     vdW  Elec       q    Type
REMARK                         _______ _______ _______ _____ _____    ______ ____
ROOT
ATOM      1  C   UNL     1      67.771  70.560  56.740  0.00  0.00    +0.000 A 
ATOM      2  C   UNL     1      68.400  71.083  55.623  0.00  0.00    +0.000 A 
ATOM      3  C   UNL     1      69.661  71.676  55.746  0.00  0.00    +0.000 A 
ATOM      4  C   UNL     1      70.339  71.766  56.990  0.00  0.00    +0.000 A 
ATOM      5  C   UNL     1      69.671  71.222  58.115  0.00  0.00    +0.000 A 
ATOM      6  C   UNL     1      68.403  70.630  57.978  0.00  0.00    +0.000 A 
ATOM      7  C   UNL     1      70.273  71.273  59.377  0.00  0.00    +0.000 A 
ATOM      8  C   UNL     1      71.531  71.851  59.564  0.00  0.00    +0.000 A 
ATOM      9  C   UNL     1      72.112  71.887  60.840  0.00  0.00    +0.000 A 
ATOM     10  C   UNL     1      73.366  72.462  61.040  0.00  0.00    +0.000 A 
ATOM     11  C   UNL     1      74.072  73.014  59.968  0.00  0.00    +0.000 A 
ATOM     12  C   UNL     1      75.335  73.594  60.158  0.00  0.00    +0.000 A 
ATOM     13  C   UNL     1      76.033  74.142  59.084  0.00  0.00    +0.000 A 
ATOM     14  C   UNL     1      75.475  74.118  57.807  0.00  0.00    +0.000 A 
ATOM     15  C   UNL     1      74.214  73.543  57.590  0.00  0.00    +0.000 A 
ATOM     16  C   UNL     1      73.645  73.512  56.318  0.00  0.00    +0.000 A 
ATOM     17  C   UNL     1      72.388  72.938  56.113  0.00  0.00    +0.000 A 
ATOM     18  C   UNL     1      71.635  72.366  57.166  0.00  0.00    +0.000 A 
ATOM     19  C   UNL     1      72.219  72.400  58.461  0.00  0.00    +0.000 A 
ATOM     20  C   UNL     1      73.500  72.985  58.672  0.00  0.00    +0.000 A 
ENDROOT
TORSDOF 0
ENDMDL
MODEL 4
REMARK VINA RESULT:    -8.575      0.901      5.494
REMARK INTER + INTRA:          -8.575
REMARK INTER:                  -8.575
REMARK INTRA:                   0.000
REMARK UNBOUND:                 0.000
REMARK  Name = benzo_a_pyrene
REMARK  0 active torsions:
REMARK  status: ('A' for Active; 'I' for Inactive)
REMARK                            x       y       z     vdW  Elec       q    Type
REMARK                         _______ _______ _______ _____ _____    ______ ____
ROOT
ATOM      1  C   UNL     1      68.067  70.768  56.190  0.00  0.00    +0.000 A 
ATOM      2  C   UNL     1      68.021  70.504  57.549  0.00  0.00    +0.000 A 
ATOM      3  C   UNL     1      69.086  70.886  58.370  0.00  0.00    +0.000 A 
ATOM      4  C   UNL     1      70.236  71.546  57.863  0.00  0.00    +0.000 A 
ATOM      5  C   UNL     1      70.256  71.804  56.470  0.00  0.00    +0.000 A 
ATOM      6  C   UNL     1      69.177  71.414  55.655  0.00  0.00    +0.000 A 
ATOM      7  C   UNL     1      71.354  72.450  55.894  0.00  0.00    +0.000 A 
ATOM      8  C   UNL     1      72.448  72.857  56.661  0.00  0.00    +0.000 A 
ATOM      9  C   UNL     1      73.536  73.503  56.057  0.00  0.00    +0.000 A 
ATOM     10  C   UNL     1      74.634  73.914  56.811  0.00  0.00    +0.000 A 
ATOM     11  C   UNL     1      74.672  73.687  58.190  0.00  0.00    +0.000 A 
ATOM     12  C   UNL     1      75.771  74.096  58.959  0.00  0.00    +0.000 A 
ATOM     13  C   UNL     1      75.802  73.867  60.332  0.00  0.00    +0.000 A 
ATOM     14  C   UNL     1      74.732  73.225  60.954  0.00  0.00    +0.000 A 
ATOM     15  C   UNL     1      73.620  72.807  60.208  0.00  0.00    +0.000 A 
ATOM     16  C   UNL     1      72.543  72.164  60.818  0.00  0.00    +0.000 A 
ATOM     17  C   UNL     1      71.441  71.751  60.065  0.00  0.00    +0.000 A 
ATOM     18  C   UNL     1      71.357  71.958  58.668  0.00  0.00    +0.000 A 
ATOM     19  C   UNL     1      72.456  72.613  58.051  0.00  0.00    +0.000 A 
ATOM     20  C   UNL     1      73.581  73.035  58.816  0.00  0.00    +0.000 A 
ENDROOT
TORSDOF 0
ENDMDL
MODEL 5
REMARK VINA RESULT:    -8.234      1.056      1.638
REMARK INTER + INTRA:          -8.234
REMARK INTER:                  -8.234
REMARK INTRA:                   0.000
REMARK UNBOUND:                 0.000
REMARK  Name = benzo_a_pyrene
REMARK  0 active torsions:
REMARK  status: ('A' for Active; 'I' for Inactive)
REMARK                            x       y       z     vdW  Elec       q    Type
REMARK                         _______ _______ _______ _____ _____    ______ ____
ROOT
ATOM      1  C   UNL     1      76.412  74.302  58.647  0.00  0.00    +0.000 A 
ATOM      2  C   UNL     1      75.897  73.814  59.837  0.00  0.00    +0.000 A 
ATOM      3  C   UNL     1      74.641  73.199  59.853  0.00  0.00    +0.000 A 
ATOM      4  C   UNL     1      73.854  73.050  58.681  0.00  0.00    +0.000 A 
ATOM      5  C   UNL     1      74.406  73.558  57.479  0.00  0.00    +0.000 A 
ATOM      6  C   UNL     1      75.670  74.175  57.477  0.00  0.00    +0.000 A 
ATOM      7  C   UNL     1      73.692  73.449  56.282  0.00  0.00    +0.000 A 
ATOM      8  C   UNL     1      72.433  72.846  56.233  0.00  0.00    +0.000 A 
ATOM      9  C   UNL     1      71.739  72.750  55.019  0.00  0.00    +0.000 A 
ATOM     10  C   UNL     1      70.482  72.150  54.957  0.00  0.00    +0.000 A 
ATOM     11  C   UNL     1      69.887  71.630  56.110  0.00  0.00    +0.000 A 
ATOM     12  C   UNL     1      68.623  71.025  56.060  0.00  0.00    +0.000 A 
ATOM     13  C   UNL     1      68.037  70.509  57.213  0.00  0.00    +0.000 A 
ATOM     14  C   UNL     1      68.708  70.593  58.431  0.00  0.00    +0.000 A 
ATOM     15  C   UNL     1      69.973  71.194  58.509  0.00  0.00    +0.000 A 
ATOM     16  C   UNL     1      70.655  71.284  59.722  0.00  0.00    +0.000 A 
ATOM     17  C   UNL     1      71.915  71.885  59.787  0.00  0.00    +0.000 A 
ATOM     18  C   UNL     1      72.558  72.425  58.648  0.00  0.00    +0.000 A 
ATOM     19  C   UNL     1      71.859  72.330  57.415  0.00  0.00    +0.000 A 
ATOM     20  C   UNL     1      70.575  71.719  57.345  0.00  0.00    +0.000 A 
ENDROOT
TORSDOF 0
ENDMDL
MODEL 6
REMARK VINA RESULT:    -7.811      2.101      4.930
REMARK INTER + INTRA:          -7.811
REMARK INTER:                  -7.811
REMARK INTRA:                   0.000
REMARK UNBOUND:                 0.000
REMARK  Name = benzo_a_pyrene
REMARK  0 active torsions:
REMARK  status: ('A' for Active; 'I' for Inactive)
REMARK                            x       y       z     vdW  Elec       q    Type
REMARK                         _______ _______ _______ _____ _____    ______ ____
ROOT
ATOM      1  C   UNL     1      74.268  73.128  52.101  0.00  0.00    +0.000 A 
ATOM      2  C   UNL     1      75.099  72.943  53.194  0.00  0.00    +0.000 A 
ATOM      3  C   UNL     1      74.558  72.547  54.422  0.00  0.00    +0.000 A 
ATOM      4  C   UNL     1      73.168  72.321  54.601  0.00  0.00    +0.000 A 
ATOM      5  C   UNL     1      72.343  72.518  53.466  0.00  0.00    +0.000 A 
ATOM      6  C   UNL     1      72.900  72.917  52.237  0.00  0.00    +0.000 A 
ATOM      7  C   UNL     1      70.963  72.316  53.562  0.00  0.00    +0.000 A 
ATOM      8  C   UNL     1      70.363  71.920  54.759  0.00  0.00    +0.000 A 
ATOM      9  C   UNL     1      68.976  71.725  54.827  0.00  0.00    +0.000 A 
ATOM     10  C   UNL     1      68.365  71.329  56.017  0.00  0.00    +0.000 A 
ATOM     11  C   UNL     1      69.128  71.119  57.169  0.00  0.00    +0.000 A 
ATOM     12  C   UNL     1      68.524  70.722  58.371  0.00  0.00    +0.000 A 
ATOM     13  C   UNL     1      69.290  70.514  59.515  0.00  0.00    +0.000 A 
ATOM     14  C   UNL     1      70.670  70.703  59.472  0.00  0.00    +0.000 A 
ATOM     15  C   UNL     1      71.299  71.100  58.283  0.00  0.00    +0.000 A 
ATOM     16  C   UNL     1      72.679  71.293  58.226  0.00  0.00    +0.000 A 
ATOM     17  C   UNL     1      73.294  71.689  57.035  0.00  0.00    +0.000 A 
ATOM     18  C   UNL     1      72.566  71.913  55.843  0.00  0.00    +0.000 A 
ATOM     19  C   UNL     1      71.160  71.716  55.906  0.00  0.00    +0.000 A 
ATOM     20  C   UNL     1      70.530  71.312  57.118  0.00  0.00    +0.000 A 
ENDROOT
TORSDOF 0
ENDMDL
MODEL 7
REMARK VINA RESULT:    -7.660      1.250      6.575
REMARK INTER + INTRA:          -7.660
REMARK INTER:                  -7.660
REMARK INTRA:                   0.000
REMARK UNBOUND:                 0.000
REMARK  Name = benzo_a_pyrene
REMARK  0 active torsions:
REMARK  status: ('A' for Active; 'I' for Inactive)
REMARK                            x       y       z     vdW  Elec       q    Type
REMARK                         _______ _______ _______ _____ _____    ______ ____
ROOT
ATOM      1  C   UNL     1      69.334  71.062  57.642  0.00  0.00    +0.000 A 
ATOM      2  C   UNL     1      70.113  71.398  56.547  0.00  0.00    +0.000 A 
ATOM      3  C   UNL     1      71.391  71.933  56.740  0.00  0.00    +0.000 A 
ATOM      4  C   UNL     1      71.937  72.150  58.032  0.00  0.00    +0.000 A 
ATOM      5  C   UNL     1      71.117  71.796  59.133  0.00  0.00    +0.000 A 
ATOM      6  C   UNL     1      69.833  71.260  58.926  0.00  0.00    +0.000 A 
ATOM      7  C   UNL     1      71.583  71.980  60.438  0.00  0.00    +0.000 A 
ATOM      8  C   UNL     1      72.850  72.509  60.695  0.00  0.00    +0.000 A 
ATOM      9  C   UNL     1      73.292  72.683  62.014  0.00  0.00    +0.000 A 
ATOM     10  C   UNL     1      74.554  73.210  62.284  0.00  0.00    +0.000 A 
ATOM     11  C   UNL     1      75.407  73.577  61.239  0.00  0.00    +0.000 A 
ATOM     12  C   UNL     1      76.679  74.108  61.499  0.00  0.00    +0.000 A 
ATOM     13  C   UNL     1      77.523  74.471  60.452  0.00  0.00    +0.000 A 
ATOM     14  C   UNL     1      77.105  74.308  59.133  0.00  0.00    +0.000 A 
ATOM     15  C   UNL     1      75.838  73.779  58.846  0.00  0.00    +0.000 A 
ATOM     16  C   UNL     1      75.408  73.611  57.530  0.00  0.00    +0.000 A 
ATOM     17  C   UNL     1      74.143  73.083  57.257  0.00  0.00    +0.000 A 
ATOM     18  C   UNL     1      73.245  72.697  58.280  0.00  0.00    +0.000 A 
ATOM     19  C   UNL     1      73.688  72.870  59.618  0.00  0.00    +0.000 A 
ATOM     20  C   UNL     1      74.976  73.408  59.900  0.00  0.00    +0.000 A 
ENDROOT
TORSDOF 0
ENDMDL
MODEL 8
REMARK VINA RESULT:    -7.546      2.018      4.554
REMARK INTER + INTRA:          -7.546
REMARK INTER:                  -7.546
REMARK INTRA:                   0.000
REMARK UNBOUND:                 0.000
REMARK  Name = benzo_a_pyrene
REMARK  0 active torsions:
REMARK  status: ('A' for Active; 'I' for Inactive)
REMARK                            x       y       z     vdW  Elec       q    Type
REMARK                         _______ _______ _______ _____ _____    ______ ____
ROOT
ATOM      1  C   UNL     1      75.795  73.267  53.686  0.00  0.00    +0.000 A 
ATOM      2  C   UNL     1      74.711  73.313  52.825  0.00  0.00    +0.000 A 
ATOM      3  C   UNL     1      73.441  72.947  53.283  0.00  0.00    +0.000 A 
ATOM      4  C   UNL     1      73.209  72.522  54.618  0.00  0.00    +0.000 A 
ATOM      5  C   UNL     1      74.336  72.486  55.476  0.00  0.00    +0.000 A 
ATOM      6  C   UNL     1      75.608  72.856  55.002  0.00  0.00    +0.000 A 
ATOM      7  C   UNL     1      74.190  72.078  56.805  0.00  0.00    +0.000 A 
ATOM      8  C   UNL     1      72.948  71.701  57.322  0.00  0.00    +0.000 A 
ATOM      9  C   UNL     1      72.830  71.296  58.659  0.00  0.00    +0.000 A 
ATOM     10  C   UNL     1      71.596  70.917  59.187  0.00  0.00    +0.000 A 
ATOM     11  C   UNL     1      70.449  70.933  58.389  0.00  0.00    +0.000 A 
ATOM     12  C   UNL     1      69.203  70.554  58.909  0.00  0.00    +0.000 A 
ATOM     13  C   UNL     1      68.064  70.573  58.108  0.00  0.00    +0.000 A 
ATOM     14  C   UNL     1      68.158  70.970  56.776  0.00  0.00    +0.000 A 
ATOM     15  C   UNL     1      69.391  71.355  56.231  0.00  0.00    +0.000 A 
ATOM     16  C   UNL     1      69.499  71.755  54.899  0.00  0.00    +0.000 A 
ATOM     17  C   UNL     1      70.734  72.136  54.367  0.00  0.00    +0.000 A 
ATOM     18  C   UNL     1      71.922  72.136  55.135  0.00  0.00    +0.000 A 
ATOM     19  C   UNL     1      71.808  71.728  56.491  0.00  0.00    +0.000 A 
ATOM     20  C   UNL     1      70.551  71.339  57.036  0.00  0.00    +0.000 A 
ENDROOT
TORSDOF 0
ENDMDL
