MODEL 1
REMARK VINA RESULT:    -8.021      0.000      0.000
REMARK INTER + INTRA:          -8.021
REMARK INTER:                  -8.021
REMARK INTRA:                   0.000
REMARK UNBOUND:                 0.000
REMARK  Name = pyrene
REMARK  0 active torsions:
REMARK  status: ('A' for Active; 'I' for Inactive)
REMARK                            x       y       z     vdW  Elec       q    Type
REMARK                         _______ _______ _______ _____ _____    ______ ____
ROOT
ATOM      1  C   UNL     1      73.398  72.565  59.339  0.00  0.00    +0.000 A 
ATOM      2  C   UNL     1      72.375  71.866  59.978  0.00  0.00    +0.000 A 
ATOM      3  C   UNL     1      71.219  71.492  59.277  0.00  0.00    +0.000 A 
ATOM      4  C   UNL     1      70.180  70.788  59.902  0.00  0.00    +0.000 A 
ATOM      5  C   UNL     1      69.035  70.423  59.190  0.00  0.00    +0.000 A 
ATOM      6  C   UNL     1      68.898  70.751  57.835  0.00  0.00    +0.000 A 
ATOM      7  C   UNL     1      67.755  70.392  57.107  0.00  0.00    +0.000 A 
ATOM      8  C   UNL     1      67.636  70.727  55.759  0.00  0.00    +0.000 A 
ATOM      9  C   UNL     1      68.659  71.426  55.119  0.00  0.00    +0.000 A 
ATOM     10  C   UNL     1      69.815  71.801  55.821  0.00  0.00    +0.000 A 
ATOM     11  C   UNL     1      70.853  72.505  55.195  0.00  0.00    +0.000 A 
ATOM     12  C   UNL     1      71.999  72.870  55.907  0.00  0.00    +0.000 A 
ATOM     13  C   UNL     1      72.136  72.542  57.262  0.00  0.00    +0.000 A 
ATOM     14  C   UNL     1      73.279  72.901  57.991  0.00  0.00    +0.000 A 
ATOM     15  C   UNL     1      71.098  71.831  57.910  0.00  0.00    +0.000 A 
ATOM     16  C   UNL     1      69.936  71.462  57.188  0.00  0.00    +0.000 A 
ENDROOT
TORSDOF 0
ENDMDL
MODEL 2
REMARK VINA RESULT:    -7.988      0.134      5.073
REMARK INTER + INTRA:          -7.988
REMARK INTER:                  -7.988
REMARK INTRA:                   0.000
REMARK UNBOUND:                 0.000
REMARK  Name = pyrene
REMARK  0 active torsions:
REMARK  status: ('A' for Active; 'I' for Inactive)
REMARK                            x       y       z     vdW  Elec       q    Type
REMARK                         _______ _______ _______ _____ _____    ______ ____
ROOT
ATOM      1  C   UNL     1      67.579  70.668  55.653  0.00  0.00    +0.000 A 
ATOM      2  C   UNL     1      68.599  71.390  55.035  0.00  0.00    +0.000 A 
ATOM      3  C   UNL     1      69.735  71.783  55.760  0.00  0.00    +0.000 A 
ATOM      4  C   UNL     1      70.772  72.508  55.157  0.00  0.00    +0.000 A 
ATOM      5  C   UNL     1      71.896  72.892  55.892  0.00  0.00    +0.000 A 
ATOM      6  C   UNL     1      72.013  72.562  57.248  0.00  0.00    +0.000 A 
ATOM      7  C   UNL     1      73.135  72.941  57.999  0.00  0.00    +0.000 A 
ATOM      8  C   UNL     1      73.234  72.603  59.349  0.00  0.00    +0.000 A 
ATOM      9  C   UNL     1      72.214  71.881  59.966  0.00  0.00    +0.000 A 
ATOM     10  C   UNL     1      71.078  71.488  59.241  0.00  0.00    +0.000 A 
ATOM     11  C   UNL     1      70.041  70.763  59.845  0.00  0.00    +0.000 A 
ATOM     12  C   UNL     1      68.917  70.379  59.110  0.00  0.00    +0.000 A 
ATOM     13  C   UNL     1      68.799  70.709  57.753  0.00  0.00    +0.000 A 
ATOM     14  C   UNL     1      67.677  70.330  57.002  0.00  0.00    +0.000 A 
ATOM     15  C   UNL     1      69.836  71.440  57.128  0.00  0.00    +0.000 A 
ATOM     16  C   UNL     1      70.976  71.831  57.874  0.00  0.00    +0.000 A 
ENDROOT
TORSDOF 0
ENDMDL
MODEL 3
REMARK VINA RESULT:    -7.970      0.212      4.110
REMARK INTER + INTRA:          -7.970
REMARK INTER:                  -7.970
REMARK INTRA:                   0.000
REMARK UNBOUND:                 0.000
REMARK  Name = pyrene
REMARK  0 active torsions:
REMARK  status: ('A' for Active; 'I' for Inactive)
REMARK                            x       y       z     vdW  Elec       q    Type
REMARK                         _______ _______ _______ _____ _____    ______ ____
ROOT
ATOM      1  C   UNL     1      67.515  70.653  55.685  0.00  0.00    +0.000 A 
ATOM      2  C   UNL     1      67.671  70.349  57.037  0.00  0.00    +0.000 A 
ATOM      3  C   UNL     1      68.825  70.746  57.729  0.00  0.00    +0.000 A 
ATOM      4  C   UNL     1      69.000  70.450  59.088  0.00  0.00    +0.000 A 
ATOM      5  C   UNL     1      70.155  70.853  59.764  0.00  0.00    +0.000 A 
ATOM      6  C   UNL     1      71.165  71.560  59.099  0.00  0.00    +0.000 A 
ATOM      7  C   UNL     1      72.330  71.971  59.764  0.00  0.00    +0.000 A 
ATOM      8  C   UNL     1      73.324  72.675  59.085  0.00  0.00    +0.000 A 
ATOM      9  C   UNL     1      73.168  72.979  57.734  0.00  0.00    +0.000 A 
ATOM     10  C   UNL     1      72.014  72.582  57.041  0.00  0.00    +0.000 A 
ATOM     11  C   UNL     1      71.839  72.878  55.682  0.00  0.00    +0.000 A 
ATOM     12  C   UNL     1      70.684  72.475  55.006  0.00  0.00    +0.000 A 
ATOM     13  C   UNL     1      69.674  71.767  55.671  0.00  0.00    +0.000 A 
ATOM     14  C   UNL     1      68.509  71.357  55.007  0.00  0.00    +0.000 A 
ATOM     15  C   UNL     1      69.833  71.460  57.043  0.00  0.00    +0.000 A 
ATOM     16  C   UNL     1      71.005  71.867  57.728  0.00  0.00    +0.000 A 
ENDROOT
TORSDOF 0
ENDMDL
MODEL 4
REMARK VINA RESULT:    -7.843      0.316      2.986
REMARK INTER + INTRA:          -7.843
REMARK INTER:                  -7.843
REMARK INTRA:                   0.000
REMARK UNBOUND:                 0.000
REMARK  Name = pyrene
REMARK  0 active torsions:
REMARK  status: ('A' for Active; 'I' for Inactive)
REMARK                            x       y       z     vdW  Elec       q    Type
REMARK                         _______ _______ _______ _____ _____    ______ ____
ROOT
ATOM      1  C   UNL     1      73.246  72.131  59.571  0.00  0.00    +0.000 A 
ATOM      2  C   UNL     1      73.249  72.542  58.239  0.00  0.00    +0.000 A 
ATOM      3  C   UNL     1      72.139  72.298  57.415  0.00  0.00    +0.000 A 
ATOM      4  C   UNL     1      72.123  72.704  56.073  0.00  0.00    +0.000 A 
ATOM      5  C   UNL     1      71.010  72.453  55.265  0.00  0.00    +0.000 A 
ATOM      6  C   UNL     1      69.887  71.791  55.777  0.00  0.00    +0.000 A 
ATOM      7  C   UNL     1      68.764  71.532  54.978  0.00  0.00    +0.000 A 
ATOM      8  C   UNL     1      67.654  70.871  55.505  0.00  0.00    +0.000 A 
ATOM      9  C   UNL     1      67.652  70.461  56.837  0.00  0.00    +0.000 A 
ATOM     10  C   UNL     1      68.761  70.705  57.662  0.00  0.00    +0.000 A 
ATOM     11  C   UNL     1      68.778  70.299  59.003  0.00  0.00    +0.000 A 
ATOM     12  C   UNL     1      69.890  70.549  59.811  0.00  0.00    +0.000 A 
ATOM     13  C   UNL     1      71.014  71.212  59.300  0.00  0.00    +0.000 A 
ATOM     14  C   UNL     1      72.137  71.470  60.098  0.00  0.00    +0.000 A 
ATOM     15  C   UNL     1      71.014  71.629  57.948  0.00  0.00    +0.000 A 
ATOM     16  C   UNL     1      69.886  71.374  57.128  0.00  0.00    +0.000 A 
ENDROOT
TORSDOF 0
ENDMDL
MODEL 5
REMARK VINA RESULT:    -7.344      1.049      3.636
REMARK INTER + INTRA:          -7.344
REMARK INTER:                  -7.344
REMARK INTRA:                   0.000
REMARK UNBOUND:                 0.000
REMARK  Name = pyrene
REMARK  0 active torsions:
REMARK  status: ('A' for Active; 'I' for Inactive)
REMARK                            x       y       z     vdW  Elec       q    Type
REMARK                         _______ _______ _______ _____ _____    ______ ____
ROOT
ATOM      1  C   UNL     1      72.312  72.931  54.005  0.00  0.00    +0.000 A 
ATOM      2  C   UNL     1      70.951  72.633  53.937  0.00  0.00    +0.000 A 
ATOM      3  C   UNL     1      70.292  72.057  55.034  0.00  0.00    +0.000 A 
ATOM      4  C   UNL     1      68.925  71.752  54.986  0.00  0.00    +0.000 A 
ATOM      5  C   UNL     1      68.282  71.178  56.086  0.00  0.00    +0.000 A 
ATOM      6  C   UNL     1      68.989  70.895  57.263  0.00  0.00    +0.000 A 
ATOM      7  C   UNL     1      68.358  70.320  58.375  0.00  0.00    +0.000 A 
ATOM      8  C   UNL     1      69.078  70.046  59.537  0.00  0.00    +0.000 A 
ATOM      9  C   UNL     1      70.438  70.344  59.604  0.00  0.00    +0.000 A 
ATOM     10  C   UNL     1      71.098  70.920  58.508  0.00  0.00    +0.000 A 
ATOM     11  C   UNL     1      72.465  71.226  58.556  0.00  0.00    +0.000 A 
ATOM     12  C   UNL     1      73.108  71.799  57.455  0.00  0.00    +0.000 A 
ATOM     13  C   UNL     1      72.401  72.082  56.279  0.00  0.00    +0.000 A 
ATOM     14  C   UNL     1      73.032  72.657  55.167  0.00  0.00    +0.000 A 
ATOM     15  C   UNL     1      71.021  71.780  56.213  0.00  0.00    +0.000 A 
ATOM     16  C   UNL     1      70.369  71.197  57.329  0.00  0.00    +0.000 A 
ENDROOT
TORSDOF 0
ENDMDL
MODEL 6
REMARK VINA RESULT:    -7.294      0.996      3.604
REMARK INTER + INTRA:          -7.294
REMARK INTER:                  -7.294
REMARK INTRA:                   0.000
REMARK UNBOUND:                 0.000
REMARK  Name = pyrene
REMARK  0 active torsions:
REMARK  status: ('A' for Active; 'I' for Inactive)
REMARK                            x       y       z     vdW  Elec       q    Type
REMARK                         _______ _______ _______ _____ _____    ______ ____
ROOT
ATOM      1  C   UNL     1      71.981  72.956  54.060  0.00  0.00    +0.000 A 
ATOM      2  C   UNL     1      72.778  72.708  55.177  0.00  0.00    +0.000 A 
ATOM      3  C   UNL     1      72.235  72.100  56.319  0.00  0.00    +0.000 A 
ATOM      4  C   UNL     1      73.020  71.841  57.451  0.00  0.00    +0.000 A 
ATOM      5  C   UNL     1      72.465  71.235  58.582  0.00  0.00    +0.000 A 
ATOM      6  C   UNL     1      71.113  70.871  58.609  0.00  0.00    +0.000 A 
ATOM      7  C   UNL     1      70.541  70.262  59.736  0.00  0.00    +0.000 A 
ATOM      8  C   UNL     1      69.193  69.907  59.745  0.00  0.00    +0.000 A 
ATOM      9  C   UNL     1      68.397  70.155  58.627  0.00  0.00    +0.000 A 
ATOM     10  C   UNL     1      68.939  70.763  57.485  0.00  0.00    +0.000 A 
ATOM     11  C   UNL     1      68.154  71.021  56.353  0.00  0.00    +0.000 A 
ATOM     12  C   UNL     1      68.709  71.628  55.222  0.00  0.00    +0.000 A 
ATOM     13  C   UNL     1      70.062  71.992  55.195  0.00  0.00    +0.000 A 
ATOM     14  C   UNL     1      70.633  72.601  54.068  0.00  0.00    +0.000 A 
ATOM     15  C   UNL     1      70.869  71.739  56.329  0.00  0.00    +0.000 A 
ATOM     16  C   UNL     1      70.306  71.124  57.475  0.00  0.00    +0.000 A 
ENDROOT
TORSDOF 0
ENDMDL
MODEL 7
REMARK VINA RESULT:    -7.275      1.042      3.829
REMARK INTER + INTRA:          -7.275
REMARK INTER:                  -7.275
REMARK INTRA:                   0.000
REMARK UNBOUND:                 0.000
REMARK  Name = pyrene
REMARK  0 active torsions:
REMARK  status: ('A' for Active; 'I' for Inactive)
REMARK                            x       y       z     vdW  Elec       q    Type
REMARK                         _______ _______ _______ _____ _____    ______ ____
ROOT
ATOM      1  C   UNL     1      69.110  70.150  59.488  0.00  0.00    +0.000 A 
ATOM      2  C   UNL     1      68.390  70.403  58.322  0.00  0.00    +0.000 A 
ATOM      3  C   UNL     1      69.018  70.976  57.205  0.00  0.00    +0.000 A 
ATOM      4  C   UNL     1      68.310  71.237  56.023  0.00  0.00    +0.000 A 
ATOM      5  C   UNL     1      68.950  71.807  54.919  0.00  0.00    +0.000 A 
ATOM      6  C   UNL     1      70.312  72.132  54.968  0.00  0.00    +0.000 A 
ATOM      7  C   UNL     1      70.968  72.706  53.869  0.00  0.00    +0.000 A 
ATOM      8  C   UNL     1      72.324  73.022  53.937  0.00  0.00    +0.000 A 
ATOM      9  C   UNL     1      73.045  72.769  55.104  0.00  0.00    +0.000 A 
ATOM     10  C   UNL     1      72.416  72.196  56.220  0.00  0.00    +0.000 A 
ATOM     11  C   UNL     1      73.124  71.935  57.402  0.00  0.00    +0.000 A 
ATOM     12  C   UNL     1      72.484  71.364  58.506  0.00  0.00    +0.000 A 
ATOM     13  C   UNL     1      71.122  71.040  58.457  0.00  0.00    +0.000 A 
ATOM     14  C   UNL     1      70.466  70.466  59.556  0.00  0.00    +0.000 A 
ATOM     15  C   UNL     1      70.393  71.296  57.272  0.00  0.00    +0.000 A 
ATOM     16  C   UNL     1      71.041  71.876  56.153  0.00  0.00    +0.000 A 
ENDROOT
TORSDOF 0
ENDMDL
MODEL 8
REMARK VINA RESULT:    -7.262      1.105      3.746
REMARK INTER + INTRA:          -7.262
REMARK INTER:                  -7.262
REMARK INTRA:                   0.000
REMARK UNBOUND:                 0.000
REMARK  Name = pyrene
REMARK  0 active torsions:
REMARK  status: ('A' for Active; 'I' for Inactive)
REMARK                            x       y       z     vdW  Elec       q    Type
REMARK                         _______ _______ _______ _____ _____    ______ ____
ROOT
ATOM      1  C   UNL     1      69.104  70.179  59.418  0.00  0.00    +0.000 A 
ATOM      2  C   UNL     1      70.472  70.439  59.474  0.00  0.00    +0.000 A 
ATOM      3  C   UNL     1      71.143  70.975  58.364  0.00  0.00    +0.000 A 
ATOM      4  C   UNL     1      72.518  71.245  58.401  0.00  0.00    +0.000 A 
ATOM      5  C   UNL     1      73.172  71.779  57.287  0.00  0.00    +0.000 A 
ATOM      6  C   UNL     1      72.468  72.057  56.108  0.00  0.00    +0.000 A 
ATOM      7  C   UNL     1      73.110  72.592  54.982  0.00  0.00    +0.000 A 
ATOM      8  C   UNL     1      72.393  72.862  53.817  0.00  0.00    +0.000 A 
ATOM      9  C   UNL     1      71.024  72.602  53.761  0.00  0.00    +0.000 A 
ATOM     10  C   UNL     1      70.354  72.066  54.871  0.00  0.00    +0.000 A 
ATOM     11  C   UNL     1      68.979  71.796  54.834  0.00  0.00    +0.000 A 
ATOM     12  C   UNL     1      68.325  71.262  55.948  0.00  0.00    +0.000 A 
ATOM     13  C   UNL     1      69.029  70.984  57.127  0.00  0.00    +0.000 A 
ATOM     14  C   UNL     1      68.387  70.449  58.253  0.00  0.00    +0.000 A 
ATOM     15  C   UNL     1      70.417  71.250  57.182  0.00  0.00    +0.000 A 
ATOM     16  C   UNL     1      71.080  71.791  56.052  0.00  0.00    +0.000 A 
ENDROOT
TORSDOF 0
ENDMDL
MODEL 9
REMARK VINA RESULT:    -6.657      1.151      3.496
REMARK INTER + INTRA:          -6.657
REMARK INTER:                  -6.657
REMARK INTRA:                   0.000
REMARK UNBOUND:                 0.000
REMARK  Name = pyrene
REMARK  0 active torsions:
REMARK  status: ('A' for Active; 'I' for Inactive)
REMARK                            x       y       z     vdW  Elec       q    Type
REMARK                         _______ _______ _______ _____ _____    ______ ____
ROOT
ATOM      1  C   UNL     1      73.489  72.543  61.295  0.00  0.00    +0.000 A 
ATOM      2  C   UNL     1      74.014  73.218  60.194  0.00  0.00    +0.000 A 
ATOM      3  C   UNL     1      73.384  73.142  58.942  0.00  0.00    +0.000 A 
ATOM      4  C   UNL     1      73.896  73.814  57.824  0.00  0.00    +0.000 A 
ATOM      5  C   UNL     1      73.257  73.728  56.584  0.00  0.00    +0.000 A 
ATOM      6  C   UNL     1      72.089  72.969  56.431  0.00  0.00    +0.000 A 
ATOM      7  C   UNL     1      71.436  72.873  55.193  0.00  0.00    +0.000 A 
ATOM      8  C   UNL     1      70.275  72.113  55.060  0.00  0.00    +0.000 A 
ATOM      9  C   UNL     1      69.750  71.438  56.161  0.00  0.00    +0.000 A 
ATOM     10  C   UNL     1      70.380  71.514  57.412  0.00  0.00    +0.000 A 
ATOM     11  C   UNL     1      69.868  70.842  58.530  0.00  0.00    +0.000 A 
ATOM     12  C   UNL     1      70.507  70.928  59.770  0.00  0.00    +0.000 A 
ATOM     13  C   UNL     1      71.675  71.687  59.924  0.00  0.00    +0.000 A 
ATOM     14  C   UNL     1      72.328  71.783  61.161  0.00  0.00    +0.000 A 
ATOM     15  C   UNL     1      72.206  72.372  58.806  0.00  0.00    +0.000 A 
ATOM     16  C   UNL     1      71.558  72.284  57.549  0.00  0.00    +0.000 A 
ENDROOT
TORSDOF 0
ENDMDL
