REMARK SMILES c1ccc2cc3ccccc3cc2c1
REMARK SMILES IDX 2 1 1 2 14 3 13 4 12 5 11 6 10 7 9 8 8 9 7 10 6 11 5 12 4 13
REMARK SMILES IDX 3 14
REMARK H PARENT
ROOT
ATOM      1  C   UNL     1      -3.591   0.984  -0.131  1.00  0.00     0.001 A 
ATOM      2  C   UNL     1      -3.702  -0.357   0.221  1.00  0.00     0.001 A 
ATOM      3  C   UNL     1      -2.553  -1.133   0.382  1.00  0.00     0.009 A 
ATOM      4  C   UNL     1      -1.277  -0.576   0.193  1.00  0.00    -0.018 A 
ATOM      5  C   UNL     1      -0.111  -1.343   0.352  1.00  0.00     0.017 A 
ATOM      6  C   UNL     1       1.164  -0.785   0.163  1.00  0.00    -0.018 A 
ATOM      7  C   UNL     1       2.330  -1.553   0.322  1.00  0.00     0.009 A 
ATOM      8  C   UNL     1       3.591  -0.984   0.131  1.00  0.00     0.001 A 
ATOM      9  C   UNL     1       3.702   0.357  -0.221  1.00  0.00     0.001 A 
ATOM     10  C   UNL     1       2.553   1.133  -0.382  1.00  0.00     0.009 A 
ATOM     11  C   UNL     1       1.277   0.576  -0.193  1.00  0.00    -0.018 A 
ATOM     12  C   UNL     1       0.111   1.343  -0.352  1.00  0.00     0.017 A 
ATOM     13  C   UNL     1      -1.164   0.785  -0.163  1.00  0.00    -0.018 A 
ATOM     14  C   UNL     1      -2.330   1.553  -0.322  1.00  0.00     0.009 A 
ENDROOT
TORSDOF 0
