REMARK SMILES c1ccc2c(c1)cc1ccc3cccc4ccc2c1c34
REMARK SMILES IDX 1 1 2 2 3 3 4 4 5 5 6 6 7 7 8 8 9 9 10 10 11 11 12 12 13 13
REMARK SMILES IDX 14 14 15 15 16 16 17 17 18 18 19 19 20 20
REMARK H PARENT
ROOT
ATOM      1  C   UNL     1       4.755  -0.287  -0.085  1.00  0.00     0.001 A 
ATOM      2  C   UNL     1       4.381   0.776  -0.891  1.00  0.00     0.001 A 
ATOM      3  C   UNL     1       3.027   1.089  -1.048  1.00  0.00     0.009 A 
ATOM      4  C   UNL     1       1.998   0.352  -0.405  1.00  0.00    -0.010 A 
ATOM      5  C   UNL     1       2.410  -0.729   0.413  1.00  0.00    -0.017 A 
ATOM      6  C   UNL     1       3.775  -1.034   0.562  1.00  0.00     0.009 A 
ATOM      7  C   UNL     1       1.456  -1.504   1.080  1.00  0.00     0.017 A 
ATOM      8  C   UNL     1       0.089  -1.241   0.964  1.00  0.00    -0.016 A 
ATOM      9  C   UNL     1      -0.846  -2.034   1.644  1.00  0.00     0.009 A 
ATOM     10  C   UNL     1      -2.213  -1.782   1.536  1.00  0.00     0.009 A 
ATOM     11  C   UNL     1      -2.679  -0.729   0.744  1.00  0.00    -0.017 A 
ATOM     12  C   UNL     1      -4.052  -0.466   0.628  1.00  0.00     0.009 A 
ATOM     13  C   UNL     1      -4.509   0.585  -0.163  1.00  0.00     0.001 A 
ATOM     14  C   UNL     1      -3.598   1.386  -0.849  1.00  0.00     0.009 A 
ATOM     15  C   UNL     1      -2.220   1.145  -0.750  1.00  0.00    -0.017 A 
ATOM     16  C   UNL     1      -1.298   1.939  -1.431  1.00  0.00     0.009 A 
ATOM     17  C   UNL     1       0.073   1.689  -1.325  1.00  0.00     0.010 A 
ATOM     18  C   UNL     1       0.593   0.636  -0.536  1.00  0.00    -0.009 A 
ATOM     19  C   UNL     1      -0.350  -0.170   0.156  1.00  0.00    -0.002 A 
ATOM     20  C   UNL     1      -1.748   0.082   0.050  1.00  0.00    -0.003 A 
ENDROOT
TORSDOF 0
