REMARK SMILES c1ccc2c(c1)-c1cccc3cccc-2c13
REMARK SMILES IDX 1 1 2 2 3 3 4 4 5 5 6 6 7 7 8 8 9 9 10 10 11 11 12 12 13 13
REMARK SMILES IDX 14 14 15 15 16 16
REMARK H PARENT
ROOT
ATOM      1  C   UNL     1       3.567   0.793   0.633  1.00  0.00     0.001 A 
ATOM      2  C   UNL     1       3.556  -0.596   0.868  1.00  0.00     0.001 A 
ATOM      3  C   UNL     1       2.378  -1.340   0.741  1.00  0.00     0.009 A 
ATOM      4  C   UNL     1       1.227  -0.668   0.378  1.00  0.00    -0.010 A 
ATOM      5  C   UNL     1       1.238   0.736   0.141  1.00  0.00    -0.010 A 
ATOM      6  C   UNL     1       2.401   1.473   0.266  1.00  0.00     0.009 A 
ATOM      7  C   UNL     1      -0.121   1.120  -0.217  1.00  0.00    -0.009 A 
ATOM      8  C   UNL     1      -0.706   2.328  -0.549  1.00  0.00     0.009 A 
ATOM      9  C   UNL     1      -2.080   2.349  -0.849  1.00  0.00     0.001 A 
ATOM     10  C   UNL     1      -2.858   1.171  -0.816  1.00  0.00     0.009 A 
ATOM     11  C   UNL     1      -2.268  -0.063  -0.478  1.00  0.00    -0.017 A 
ATOM     12  C   UNL     1      -2.878  -1.329  -0.393  1.00  0.00     0.009 A 
ATOM     13  C   UNL     1      -2.118  -2.465  -0.036  1.00  0.00     0.001 A 
ATOM     14  C   UNL     1      -0.743  -2.369   0.244  1.00  0.00     0.009 A 
ATOM     15  C   UNL     1      -0.139  -1.127   0.162  1.00  0.00    -0.009 A 
ATOM     16  C   UNL     1      -0.905  -0.025  -0.191  1.00  0.00    -0.003 A 
ENDROOT
TORSDOF 0
