REMARK SMILES c1ccc2ccccc2c1
REMARK SMILES IDX 2 1 1 2 10 3 9 4 8 5 7 6 6 7 5 8 4 9 3 10
REMARK H PARENT
ROOT
ATOM      1  C   UNL     1      -2.454  -0.584   0.214  1.00  0.00     0.001 A 
ATOM      2  C   UNL     1      -2.407   0.625  -0.474  1.00  0.00     0.001 A 
ATOM      3  C   UNL     1      -1.176   1.221  -0.754  1.00  0.00     0.009 A 
ATOM      4  C   UNL     1       0.024   0.614  -0.349  1.00  0.00    -0.018 A 
ATOM      5  C   UNL     1       1.270   1.200  -0.624  1.00  0.00     0.009 A 
ATOM      6  C   UNL     1       2.454   0.584  -0.214  1.00  0.00     0.001 A 
ATOM      7  C   UNL     1       2.407  -0.625   0.474  1.00  0.00     0.001 A 
ATOM      8  C   UNL     1       1.176  -1.221   0.754  1.00  0.00     0.009 A 
ATOM      9  C   UNL     1      -0.024  -0.614   0.349  1.00  0.00    -0.018 A 
ATOM     10  C   UNL     1      -1.270  -1.200   0.624  1.00  0.00     0.009 A 
ENDROOT
TORSDOF 0
