REMARK SMILES c1ccc2c(c1)ccc1ccccc12
REMARK SMILES IDX 2 1 1 2 6 3 5 4 7 5 8 6 9 7 10 8 11 9 12 10 13 11 14 12 4 13
REMARK SMILES IDX 3 14
REMARK H PARENT
ROOT
ATOM      1  C   UNL     1      -2.989  -1.304   0.265  1.00  0.00     0.001 A 
ATOM      2  C   UNL     1      -3.574  -0.082  -0.027  1.00  0.00     0.001 A 
ATOM      3  C   UNL     1      -2.766   1.025  -0.273  1.00  0.00     0.009 A 
ATOM      4  C   UNL     1      -1.365   0.923  -0.232  1.00  0.00    -0.018 A 
ATOM      5  C   UNL     1      -0.587   2.056  -0.485  1.00  0.00     0.009 A 
ATOM      6  C   UNL     1       0.803   1.989  -0.452  1.00  0.00     0.009 A 
ATOM      7  C   UNL     1       1.456   0.788  -0.165  1.00  0.00    -0.018 A 
ATOM      8  C   UNL     1       2.861   0.754  -0.139  1.00  0.00     0.009 A 
ATOM      9  C   UNL     1       3.547  -0.424   0.144  1.00  0.00     0.001 A 
ATOM     10  C   UNL     1       2.834  -1.584   0.404  1.00  0.00     0.001 A 
ATOM     11  C   UNL     1       1.437  -1.563   0.382  1.00  0.00     0.009 A 
ATOM     12  C   UNL     1       0.701  -0.384   0.098  1.00  0.00    -0.011 A 
ATOM     13  C   UNL     1      -0.738  -0.315   0.064  1.00  0.00    -0.011 A 
ATOM     14  C   UNL     1      -1.596  -1.417   0.309  1.00  0.00     0.009 A 
ENDROOT
TORSDOF 0
