REMARK SMILES c1cc2ccc3cccc4ccc(c1)c2c34
REMARK SMILES IDX 1 1 2 2 3 3 4 4 5 5 6 6 7 7 8 8 9 9 10 10 11 11 12 12 13 13
REMARK SMILES IDX 14 14 15 15 16 16
REMARK H PARENT
ROOT
ATOM      1  C   UNL     1      -3.432   0.738  -0.157  1.00  0.00     0.001 A 
ATOM      2  C   UNL     1      -2.498   1.773  -0.146  1.00  0.00     0.009 A 
ATOM      3  C   UNL     1      -1.124   1.494  -0.084  1.00  0.00    -0.017 A 
ATOM      4  C   UNL     1      -0.170   2.521  -0.073  1.00  0.00     0.009 A 
ATOM      5  C   UNL     1       1.195   2.227  -0.011  1.00  0.00     0.009 A 
ATOM      6  C   UNL     1       1.641   0.900   0.042  1.00  0.00    -0.017 A 
ATOM      7  C   UNL     1       3.007   0.589   0.105  1.00  0.00     0.009 A 
ATOM      8  C   UNL     1       3.432  -0.738   0.157  1.00  0.00     0.001 A 
ATOM      9  C   UNL     1       2.498  -1.773   0.146  1.00  0.00     0.009 A 
ATOM     10  C   UNL     1       1.124  -1.494   0.084  1.00  0.00    -0.017 A 
ATOM     11  C   UNL     1       0.170  -2.521   0.073  1.00  0.00     0.009 A 
ATOM     12  C   UNL     1      -1.195  -2.227   0.011  1.00  0.00     0.009 A 
ATOM     13  C   UNL     1      -1.641  -0.900  -0.042  1.00  0.00    -0.017 A 
ATOM     14  C   UNL     1      -3.007  -0.589  -0.105  1.00  0.00     0.009 A 
ATOM     15  C   UNL     1      -0.692   0.149  -0.032  1.00  0.00    -0.003 A 
ATOM     16  C   UNL     1       0.692  -0.149   0.032  1.00  0.00    -0.003 A 
ENDROOT
TORSDOF 0
