REMARK  Name = anthracene
REMARK  0 active torsions:
REMARK  status: ('A' for Active; 'I' for Inactive)
REMARK                            x       y       z     vdW  Elec       q    Type
REMARK                         _______ _______ _______ _____ _____    ______ ____
ROOT
ATOM      1  C   UNL     1      -3.591   0.984  -0.131  0.00  0.00    +0.000 A 
ATOM      2  C   UNL     1      -3.702  -0.357   0.221  0.00  0.00    +0.000 A 
ATOM      3  C   UNL     1      -2.553  -1.133   0.382  0.00  0.00    +0.000 A 
ATOM      4  C   UNL     1      -1.277  -0.576   0.193  0.00  0.00    +0.000 A 
ATOM      5  C   UNL     1      -0.111  -1.343   0.352  0.00  0.00    +0.000 A 
ATOM      6  C   UNL     1       1.164  -0.785   0.163  0.00  0.00    +0.000 A 
ATOM      7  C   UNL     1       2.330  -1.553   0.322  0.00  0.00    +0.000 A 
ATOM      8  C   UNL     1       3.591  -0.984   0.131  0.00  0.00    +0.000 A 
ATOM      9  C   UNL     1       3.702   0.357  -0.221  0.00  0.00    +0.000 A 
ATOM     10  C   UNL     1       2.553   1.133  -0.382  0.00  0.00    +0.000 A 
ATOM     11  C   UNL     1       1.277   0.576  -0.193  0.00  0.00    +0.000 A 
ATOM     12  C   UNL     1       0.111   1.343  -0.352  0.00  0.00    +0.000 A 
ATOM     13  C   UNL     1      -1.164   0.785  -0.163  0.00  0.00    +0.000 A 
ATOM     14  C   UNL     1      -2.330   1.553  -0.322  0.00  0.00    +0.000 A 
ENDROOT
TORSDOF 0
