REMARK  Name = benzo_a_pyrene
REMARK  0 active torsions:
REMARK  status: ('A' for Active; 'I' for Inactive)
REMARK                            x       y       z     vdW  Elec       q    Type
REMARK                         _______ _______ _______ _____ _____    ______ ____
ROOT
ATOM      1  C   UNL     1       4.755  -0.287  -0.085  0.00  0.00    +0.000 A 
ATOM      2  C   UNL     1       4.381   0.776  -0.891  0.00  0.00    +0.000 A 
ATOM      3  C   UNL     1       3.027   1.089  -1.048  0.00  0.00    +0.000 A 
ATOM      4  C   UNL     1       1.998   0.352  -0.405  0.00  0.00    +0.000 A 
ATOM      5  C   UNL     1       2.410  -0.729   0.413  0.00  0.00    +0.000 A 
ATOM      6  C   UNL     1       3.775  -1.034   0.562  0.00  0.00    +0.000 A 
ATOM      7  C   UNL     1       1.456  -1.504   1.080  0.00  0.00    +0.000 A 
ATOM      8  C   UNL     1       0.089  -1.241   0.964  0.00  0.00    +0.000 A 
ATOM      9  C   UNL     1      -0.846  -2.034   1.644  0.00  0.00    +0.000 A 
ATOM     10  C   UNL     1      -2.213  -1.782   1.536  0.00  0.00    +0.000 A 
ATOM     11  C   UNL     1      -2.679  -0.729   0.744  0.00  0.00    +0.000 A 
ATOM     12  C   UNL     1      -4.052  -0.466   0.628  0.00  0.00    +0.000 A 
ATOM     13  C   UNL     1      -4.509   0.585  -0.163  0.00  0.00    +0.000 A 
ATOM     14  C   UNL     1      -3.598   1.386  -0.849  0.00  0.00    +0.000 A 
ATOM     15  C   UNL     1      -2.220   1.145  -0.750  0.00  0.00    +0.000 A 
ATOM     16  C   UNL     1      -1.298   1.939  -1.431  0.00  0.00    +0.000 A 
ATOM     17  C   UNL     1       0.073   1.689  -1.325  0.00  0.00    +0.000 A 
ATOM     18  C   UNL     1       0.593   0.636  -0.536  0.00  0.00    +0.000 A 
ATOM     19  C   UNL     1      -0.350  -0.170   0.156  0.00  0.00    +0.000 A 
ATOM     20  C   UNL     1      -1.748   0.082   0.050  0.00  0.00    +0.000 A 
ENDROOT
TORSDOF 0
