REMARK  Name = glucose_NEGCTRL
REMARK  6 active torsions:
REMARK  status: ('A' for Active; 'I' for Inactive)
REMARK    1  A    between atoms: O_1  and  C_2
REMARK    2  A    between atoms: C_2  and  C_3
REMARK    3  A    between atoms: C_5  and  O_6
REMARK    4  A    between atoms: C_7  and  O_8
REMARK    5  A    between atoms: C_9  and  O_10
REMARK    6  A    between atoms: C_11  and  O_12
REMARK                            x       y       z     vdW  Elec       q    Type
REMARK                         _______ _______ _______ _____ _____    ______ ____
ROOT
ATOM      1  C   UNL     1       1.235  -0.193  -0.026  0.00  0.00    +0.000 C 
ATOM      2  O   UNL     1       0.465  -1.249   0.585  0.00  0.00    +0.000 OA
ATOM      3  C   UNL     1      -0.781  -1.486  -0.060  0.00  0.00    +0.000 C 
ATOM      4  C   UNL     1      -1.659  -0.219  -0.062  0.00  0.00    +0.000 C 
ATOM      5  C   UNL     1      -0.890   0.955  -0.671  0.00  0.00    +0.000 C 
ATOM      6  C   UNL     1       0.465   1.131   0.015  0.00  0.00    +0.000 C 
ENDROOT
BRANCH   3   7
ATOM      7  O   UNL     1      -0.588  -1.981  -1.379  0.00  0.00    +0.000 OA
ATOM      8  H   UNL     1      -1.264  -1.565  -1.944  0.00  0.00    +0.000 HD
ENDBRANCH   3   7
BRANCH   4   9
ATOM      9  O   UNL     1      -2.855  -0.421  -0.834  0.00  0.00    +0.000 OA
ATOM     10  H   UNL     1      -3.392  -1.088  -0.367  0.00  0.00    +0.000 HD
ENDBRANCH   4   9
BRANCH   5  11
ATOM     11  O   UNL     1      -1.648   2.168  -0.526  0.00  0.00    +0.000 OA
ATOM     12  H   UNL     1      -2.531   1.968  -0.897  0.00  0.00    +0.000 HD
ENDBRANCH   5  11
BRANCH   6  13
ATOM     13  O   UNL     1       1.188   2.177  -0.635  0.00  0.00    +0.000 OA
ATOM     14  H   UNL     1       0.553   2.918  -0.720  0.00  0.00    +0.000 HD
ENDBRANCH   6  13
BRANCH   1  15
ATOM     15  C   UNL     1       2.558  -0.093   0.742  0.00  0.00    +0.000 C 
BRANCH  15  16
ATOM     16  O   UNL     1       3.237  -1.351   0.703  0.00  0.00    +0.000 OA
ATOM     17  H   UNL     1       2.544  -2.027   0.836  0.00  0.00    +0.000 HD
ENDBRANCH  15  16
ENDBRANCH   1  15
TORSDOF 6
