REMARK  Name = naphthalene
REMARK  0 active torsions:
REMARK  status: ('A' for Active; 'I' for Inactive)
REMARK                            x       y       z     vdW  Elec       q    Type
REMARK                         _______ _______ _______ _____ _____    ______ ____
ROOT
ATOM      1  C   UNL     1      -2.454  -0.584   0.214  0.00  0.00    +0.000 A 
ATOM      2  C   UNL     1      -2.407   0.625  -0.474  0.00  0.00    +0.000 A 
ATOM      3  C   UNL     1      -1.176   1.221  -0.754  0.00  0.00    +0.000 A 
ATOM      4  C   UNL     1       0.024   0.614  -0.349  0.00  0.00    +0.000 A 
ATOM      5  C   UNL     1       1.270   1.200  -0.624  0.00  0.00    +0.000 A 
ATOM      6  C   UNL     1       2.454   0.584  -0.214  0.00  0.00    +0.000 A 
ATOM      7  C   UNL     1       2.407  -0.625   0.474  0.00  0.00    +0.000 A 
ATOM      8  C   UNL     1       1.176  -1.221   0.754  0.00  0.00    +0.000 A 
ATOM      9  C   UNL     1      -0.024  -0.614   0.349  0.00  0.00    +0.000 A 
ATOM     10  C   UNL     1      -1.270  -1.200   0.624  0.00  0.00    +0.000 A 
ENDROOT
TORSDOF 0
