REMARK  Name = phenanthrene
REMARK  0 active torsions:
REMARK  status: ('A' for Active; 'I' for Inactive)
REMARK                            x       y       z     vdW  Elec       q    Type
REMARK                         _______ _______ _______ _____ _____    ______ ____
ROOT
ATOM      1  C   UNL     1      -2.989  -1.304   0.265  0.00  0.00    +0.000 A 
ATOM      2  C   UNL     1      -3.574  -0.082  -0.027  0.00  0.00    +0.000 A 
ATOM      3  C   UNL     1      -2.766   1.025  -0.273  0.00  0.00    +0.000 A 
ATOM      4  C   UNL     1      -1.365   0.923  -0.232  0.00  0.00    +0.000 A 
ATOM      5  C   UNL     1      -0.587   2.056  -0.485  0.00  0.00    +0.000 A 
ATOM      6  C   UNL     1       0.803   1.989  -0.452  0.00  0.00    +0.000 A 
ATOM      7  C   UNL     1       1.456   0.788  -0.165  0.00  0.00    +0.000 A 
ATOM      8  C   UNL     1       2.861   0.754  -0.139  0.00  0.00    +0.000 A 
ATOM      9  C   UNL     1       3.547  -0.424   0.144  0.00  0.00    +0.000 A 
ATOM     10  C   UNL     1       2.834  -1.584   0.404  0.00  0.00    +0.000 A 
ATOM     11  C   UNL     1       1.437  -1.563   0.382  0.00  0.00    +0.000 A 
ATOM     12  C   UNL     1       0.701  -0.384   0.098  0.00  0.00    +0.000 A 
ATOM     13  C   UNL     1      -0.738  -0.315   0.064  0.00  0.00    +0.000 A 
ATOM     14  C   UNL     1      -1.596  -1.417   0.309  0.00  0.00    +0.000 A 
ENDROOT
TORSDOF 0
