REMARK  Name = pyrene
REMARK  0 active torsions:
REMARK  status: ('A' for Active; 'I' for Inactive)
REMARK                            x       y       z     vdW  Elec       q    Type
REMARK                         _______ _______ _______ _____ _____    ______ ____
ROOT
ATOM      1  C   UNL     1      -3.432   0.738  -0.157  0.00  0.00    +0.000 A 
ATOM      2  C   UNL     1      -2.498   1.773  -0.146  0.00  0.00    +0.000 A 
ATOM      3  C   UNL     1      -1.124   1.494  -0.084  0.00  0.00    +0.000 A 
ATOM      4  C   UNL     1      -0.170   2.521  -0.073  0.00  0.00    +0.000 A 
ATOM      5  C   UNL     1       1.195   2.227  -0.011  0.00  0.00    +0.000 A 
ATOM      6  C   UNL     1       1.641   0.900   0.042  0.00  0.00    +0.000 A 
ATOM      7  C   UNL     1       3.007   0.589   0.105  0.00  0.00    +0.000 A 
ATOM      8  C   UNL     1       3.432  -0.738   0.157  0.00  0.00    +0.000 A 
ATOM      9  C   UNL     1       2.498  -1.773   0.146  0.00  0.00    +0.000 A 
ATOM     10  C   UNL     1       1.124  -1.494   0.084  0.00  0.00    +0.000 A 
ATOM     11  C   UNL     1       0.170  -2.521   0.073  0.00  0.00    +0.000 A 
ATOM     12  C   UNL     1      -1.195  -2.227   0.011  0.00  0.00    +0.000 A 
ATOM     13  C   UNL     1      -1.641  -0.900  -0.042  0.00  0.00    +0.000 A 
ATOM     14  C   UNL     1      -3.007  -0.589  -0.105  0.00  0.00    +0.000 A 
ATOM     15  C   UNL     1      -0.692   0.149  -0.032  0.00  0.00    +0.000 A 
ATOM     16  C   UNL     1       0.692  -0.149   0.032  0.00  0.00    +0.000 A 
ENDROOT
TORSDOF 0
